REMARK  Name = dock_mp/CHEMBL4/CHEMBL424676.pdb
REMARK  9 active torsions:
REMARK  status: ('A' for Active; 'I' for Inactive)
REMARK    1  A    between atoms: C1_1  and  N1_2
REMARK    2  A    between atoms: N1_2  and  C2_3
REMARK    3  A    between atoms: N1_2  and  C3_4
REMARK    4  A    between atoms: C3_4  and  C4_5
REMARK    5  A    between atoms: C4_5  and  O1_6
REMARK    6  A    between atoms: O1_6  and  C5_7
REMARK    7  A    between atoms: C8_10  and  C9_11
REMARK    8  A    between atoms: C11_13  and  C12_14
REMARK    9  A    between atoms: C14_18  and  C15_19
REMARK                            x       y       z     vdW  Elec       q    Type
REMARK                         _______ _______ _______ _____ _____    ______ ____
ROOT
ATOM      1  C9  CHE B   06      1.000  -1.230   7.000  0.00  0.00    +0.072 A 
ATOM      2  C10 CHE B   06      1.000  -2.230   6.000  0.00  0.00    +0.037 A 
ATOM      3  C11 CHE B   06      1.000  -3.510   7.000  0.00  0.00    -0.011 A 
ATOM      4  C20 CHE B   06      1.000  -3.780   5.000  0.00  0.00    +0.028 A 
ATOM      5  C21 CHE B   06      1.000  -2.790   2.000  0.00  0.00    +0.112 A 
ATOM      6  N5  CHE B   06      1.000  -1.560   1.000  0.00  0.00    -0.255 NA
ENDROOT
BRANCH   1  10
ATOM      7  C5  CHE B   06      1.000   2.860   2.000  0.00  0.00    +0.120 A 
ATOM      8  C6  CHE B   06      1.000   2.390   9.000  0.00  0.00    +0.046 A 
ATOM      9  C7  CHE B   06      1.000   1.050   4.000  0.00  0.00    +0.013 A 
ATOM     10  C8  CHE B   06      1.000   0.150   7.000  0.00  0.00    +0.001 A 
ATOM     11  C22 CHE B   06      1.000   0.580   3.000  0.00  0.00    +0.013 A 
ATOM     12  C23 CHE B   06      1.000   1.920   4.000  0.00  0.00    +0.046 A 
BRANCH   7  13
ATOM     13  O1  CHE B   06      1.000   4.120   0.000  0.00  0.00    -0.494 OA
BRANCH  13  14
ATOM     14  C4  CHE B   06      1.000   5.380   5.000  0.00  0.00    +0.210 C 
BRANCH  14  15
ATOM     15  C3  CHE B   06      1.000   6.230   3.000  0.00  0.00    -0.038 C 
BRANCH  15  17
ATOM     16  C1  CHE B   06      1.000   7.970   2.000  0.00  0.00    -0.096 C 
ATOM     17  N1  CHE B   06      1.000   7.600   6.000  0.00  0.00    +0.378 N 
ATOM     18  C2  CHE B   06      1.000   7.740   7.000  0.00  0.00    -0.096 C 
ATOM     19  H4  CHE B   06      1.000   8.240   1.000  0.00  0.00    -0.082 HD
ENDBRANCH  15  17
ENDBRANCH  14  15
ENDBRANCH  13  14
ENDBRANCH   7  13
ENDBRANCH   1  10
BRANCH   3  20
ATOM     20  C12 CHE B   06      1.000  -4.630   6.000  0.00  0.00    +0.029 A 
ATOM     21  C13 CHE B   06      1.000  -4.640   6.000  0.00  0.00    +0.114 A 
ATOM     22  N2  CHE B   06      1.000  -5.810   4.000  0.00  0.00    -0.284 N 
ATOM     23  N3  CHE B   06      1.000  -6.510   3.000  0.00  0.00    -0.172 NA
ATOM     24  C14 CHE B   06      1.000  -5.830   5.000  0.00  0.00    +0.118 A 
ATOM     25  H16 CHE B   06      1.000  -6.140   7.000  0.00  0.00    +0.188 HD
BRANCH  24  26
ATOM     26  C15 CHE B   06      1.000  -6.290   2.000  0.00  0.00    +0.091 A 
ATOM     27  C16 CHE B   06      1.000  -7.440   6.000  0.00  0.00    +0.030 A 
ATOM     28  C17 CHE B   06      1.000  -7.970   8.000  0.00  0.00    +0.004 A 
ATOM     29  C18 CHE B   06      1.000  -7.310   8.000  0.00  0.00    +0.020 A 
ATOM     30  C19 CHE B   06      1.000  -6.160   4.000  0.00  0.00    +0.111 A 
ATOM     31  N4  CHE B   06      1.000  -5.660   9.000  0.00  0.00    -0.253 NA
ENDBRANCH  24  26
ENDBRANCH   3  20
TORSDOF 7
