REMARK  Name = dock_mp/CHEMBL4/CHEMBL480582.pdb
REMARK  4 active torsions:
REMARK  status: ('A' for Active; 'I' for Inactive)
REMARK    1  A    between atoms: C1_1  and  C2_2
REMARK    2  A    between atoms: C6_10  and  C7_11
REMARK    3  A    between atoms: C11_16  and  C12_17
REMARK    4  A    between atoms: C13_19  and  C14_20
REMARK                            x       y       z     vdW  Elec       q    Type
REMARK                         _______ _______ _______ _____ _____    ______ ____
ROOT
ATOM      1  C1  CHE B   05      1.000   7.490   8.000  0.00  0.00    +0.109 C 
ATOM      2  C2  CHE B   05      1.000   6.680   4.000  0.00  0.00    +0.213 C 
ATOM      3  O1  CHE B   05      1.000   7.210   1.000  0.00  0.00    -0.276 OA
ATOM      4  N1  CHE B   05      1.000   5.320   6.000  0.00  0.00    -0.299 N 
ATOM      5  C3  CHE B   05      1.000   4.690   0.000  0.00  0.00    +0.126 C 
ATOM      6  C4  CHE B   05      1.000   3.320   5.000  0.00  0.00    +0.127 C 
ATOM      7  N2  CHE B   05      1.000   2.560   8.000  0.00  0.00    -0.298 N 
ATOM      8  C5  CHE B   05      1.000   1.140   2.000  0.00  0.00    +0.197 A 
ATOM      9  N3  CHE B   05      1.000   0.390   0.000  0.00  0.00    -0.212 NA
ATOM     10  C6  CHE B   05      1.000  -0.930   6.000  0.00  0.00    +0.117 A 
ATOM     11  C13 CHE B   05      1.000  -0.960   7.000  0.00  0.00    +0.078 A 
ATOM     12  N8  CHE B   05      1.000   0.310   1.000  0.00  0.00    -0.325 N 
ATOM     13  C20 CHE B   05      1.000   3.240   4.000  0.00  0.00    +0.127 C 
ATOM     14  C21 CHE B   05      1.000   4.600   9.000  0.00  0.00    +0.126 C 
ATOM     15  H17 CHE B   05      1.000   0.570   2.000  0.00  0.00    +0.169 HD
ENDROOT
BRANCH  11  16
ATOM     16  C14 CHE B   05      1.000  -2.200   7.000  0.00  0.00    +0.019 A 
ATOM     17  C15 CHE B   05      1.000  -2.990   8.000  0.00  0.00    +0.015 A 
ATOM     18  C16 CHE B   05      1.000  -4.180   4.000  0.00  0.00    +0.049 A 
ATOM     19  C17 CHE B   05      1.000  -4.510   9.000  0.00  0.00    +0.156 A 
ATOM     20  N5  CHE B   05      1.000  -5.600   4.000  0.00  0.00    -0.215 NA
ATOM     21  C18 CHE B   05      1.000  -5.460   5.000  0.00  0.00    +0.246 A 
ATOM     22  N6  CHE B   05      1.000  -4.300   9.000  0.00  0.00    -0.154 NA
ATOM     23  N7  CHE B   05      1.000  -3.710   5.000  0.00  0.00    -0.220 N 
ATOM     24  C19 CHE B   05      1.000  -2.550   7.000  0.00  0.00    +0.124 A 
ENDBRANCH  11  16
BRANCH  10  25
ATOM     25  C7  CHE B   05      1.000  -2.040   9.000  0.00  0.00    +0.092 A 
ATOM     26  C8  CHE B   05      1.000  -2.100   4.000  0.00  0.00    +0.033 A 
ATOM     27  C9  CHE B   05      1.000  -3.130   7.000  0.00  0.00    +0.042 A 
ATOM     28  C10 CHE B   05      1.000  -4.090   3.000  0.00  0.00    +0.144 A 
ATOM     29  F1  CHE B   05      1.000  -5.090   8.000  0.00  0.00    -0.204 F 
ATOM     30  C11 CHE B   05      1.000  -4.010   8.000  0.00  0.00    +0.074 A 
ATOM     31  C12 CHE B   05      1.000  -5.070   1.000  0.00  0.00    +0.068 C 
ATOM     32  N4  CHE B   05      1.000  -2.990   5.000  0.00  0.00    -0.247 NA
ENDBRANCH  10  25
TORSDOF 2
