REMARK  Name = dock_mp/CHEMBL4/CHEMBL409331.pdb
REMARK  7 active torsions:
REMARK  status: ('A' for Active; 'I' for Inactive)
REMARK    1  A    between atoms: C1_1  and  N1_2
REMARK    2  A    between atoms: N2_5  and  C4_6
REMARK    3  A    between atoms: C4_6  and  C5_7
REMARK    4  A    between atoms: C5_7  and  O1_8
REMARK    5  A    between atoms: O1_8  and  C6_9
REMARK    6  A    between atoms: C10_13  and  C11_14
REMARK    7  A    between atoms: C16_21  and  C17_22
REMARK                            x       y       z     vdW  Elec       q    Type
REMARK                         _______ _______ _______ _____ _____    ______ ____
ROOT
ATOM      1  C6  CHE B   03      1.000   0.200   1.000  0.00  0.00    +0.122 A 
ATOM      2  C7  CHE B   03      1.000  -1.130   2.000  0.00  0.00    +0.046 A 
ATOM      3  C8  CHE B   03      1.000  -2.160   2.000  0.00  0.00    +0.014 A 
ATOM      4  C9  CHE B   03      1.000  -1.910   7.000  0.00  0.00    +0.008 A 
ATOM      5  C10 CHE B   03      1.000  -2.910   7.000  0.00  0.00    -0.003 A 
ATOM      6  C22 CHE B   03      1.000  -2.580   4.000  0.00  0.00    +0.029 A 
ATOM      7  C23 CHE B   03      1.000  -1.270   0.000  0.00  0.00    +0.112 A 
ATOM      8  N6  CHE B   03      1.000  -0.320   5.000  0.00  0.00    -0.255 NA
ATOM      9  C24 CHE B   03      1.000  -0.610   7.000  0.00  0.00    +0.075 A 
ATOM     10  C25 CHE B   03      1.000   0.420   2.000  0.00  0.00    +0.074 A 
ENDROOT
BRANCH   5  11
ATOM     11  C11 CHE B   03      1.000  -4.300   8.000  0.00  0.00    +0.033 A 
ATOM     12  C12 CHE B   03      1.000  -5.210   3.000  0.00  0.00    +0.048 A 
ATOM     13  C13 CHE B   03      1.000  -5.390   2.000  0.00  0.00    +0.057 C 
ATOM     14  C14 CHE B   03      1.000  -6.690   2.000  0.00  0.00    +0.029 C 
ATOM     15  C15 CHE B   03      1.000  -7.420   3.000  0.00  0.00    +0.144 C 
ATOM     16  N3  CHE B   03      1.000  -6.370   1.000  0.00  0.00    -0.267 N 
ATOM     17  N4  CHE B   03      1.000  -6.200   7.000  0.00  0.00    -0.169 NA
ATOM     18  C16 CHE B   03      1.000  -4.940   1.000  0.00  0.00    +0.119 A 
BRANCH  18  19
ATOM     19  C17 CHE B   03      1.000  -4.420   8.000  0.00  0.00    +0.091 A 
ATOM     20  C18 CHE B   03      1.000  -4.920   1.000  0.00  0.00    +0.030 A 
ATOM     21  C19 CHE B   03      1.000  -4.520   1.000  0.00  0.00    +0.004 A 
ATOM     22  C20 CHE B   03      1.000  -3.600   5.000  0.00  0.00    +0.020 A 
ATOM     23  C21 CHE B   03      1.000  -3.110   8.000  0.00  0.00    +0.111 A 
ATOM     24  N5  CHE B   03      1.000  -3.550   2.000  0.00  0.00    -0.253 NA
ENDBRANCH  18  19
ENDBRANCH   5  11
BRANCH   1  25
ATOM     25  O1  CHE B   03      1.000   1.230   3.000  0.00  0.00    -0.494 OA
BRANCH  25  26
ATOM     26  C5  CHE B   03      1.000   2.580   9.000  0.00  0.00    +0.210 C 
BRANCH  26  27
ATOM     27  C4  CHE B   03      1.000   3.200   2.000  0.00  0.00    -0.037 C 
BRANCH  27  32
ATOM     28  C1  CHE B   03      1.000   8.440   1.000  0.00  0.00    -0.096 C 
ATOM     29  N1  CHE B   03      1.000   7.060   9.000  0.00  0.00    +0.375 N 
ATOM     30  C2  CHE B   03      1.000   6.170   0.000  0.00  0.00    -0.098 C 
ATOM     31  C3  CHE B   03      1.000   4.760   3.000  0.00  0.00    -0.098 C 
ATOM     32  N2  CHE B   03      1.000   4.590   7.000  0.00  0.00    +0.380 N 
ATOM     33  C26 CHE B   03      1.000   5.390   5.000  0.00  0.00    -0.098 C 
ATOM     34  C27 CHE B   03      1.000   6.860   4.000  0.00  0.00    -0.098 C 
ATOM     35  H4  CHE B   03      1.000   6.910   5.000  0.00  0.00    -0.082 HD
ATOM     36  H9  CHE B   03      1.000   4.880   4.000  0.00  0.00    -0.082 HD
ENDBRANCH  27  32
ENDBRANCH  26  27
ENDBRANCH  25  26
ENDBRANCH   1  25
TORSDOF 6
