REMARK  Name = dock_mp/CHEMBL4/CHEMBL440084.pdb
REMARK  4 active torsions:
REMARK  status: ('A' for Active; 'I' for Inactive)
REMARK    1  A    between atoms: C1_2  and  C2_4
REMARK    2  A    between atoms: C5_7  and  C6_8
REMARK    3  A    between atoms: C7_10  and  C8_11
REMARK    4  A    between atoms: C13_17  and  C14_18
REMARK                            x       y       z     vdW  Elec       q    Type
REMARK                         _______ _______ _______ _____ _____    ______ ____
ROOT
ATOM      1  C6  CHE B   00      1.000   1.330   4.000  0.00  0.00    +0.139 A 
ATOM      2  N2  CHE B   00      1.000   0.720   5.000  0.00  0.00    -0.226 NA
ATOM      3  C7  CHE B   00      1.000  -0.610   3.000  0.00  0.00    +0.115 A 
ATOM      4  C13 CHE B   00      1.000  -0.840   6.000  0.00  0.00    +0.076 A 
ATOM      5  N4  CHE B   00      1.000   0.370   1.000  0.00  0.00    -0.337 N 
ATOM      6  H14 CHE B   00      1.000   0.560   0.000  0.00  0.00    +0.167 HD
ENDROOT
BRANCH   4   7
ATOM      7  C14 CHE B   00      1.000  -2.070   7.000  0.00  0.00    +0.004 A 
ATOM      8  C15 CHE B   00      1.000  -3.080   3.000  0.00  0.00    +0.014 A 
ATOM      9  C16 CHE B   00      1.000  -4.220   0.000  0.00  0.00    +0.050 A 
ATOM     10  C17 CHE B   00      1.000  -4.330   1.000  0.00  0.00    +0.166 A 
ATOM     11  O2  CHE B   00      1.000  -5.320   7.000  0.00  0.00    -0.453 OA
ATOM     12  C18 CHE B   00      1.000  -4.790   4.000  0.00  0.00    +0.466 C 
ATOM     13  O3  CHE B   00      1.000  -3.710   7.000  0.00  0.00    -0.453 OA
ATOM     14  C19 CHE B   00      1.000  -3.310   3.000  0.00  0.00    +0.167 A 
ATOM     15  C20 CHE B   00      1.000  -2.190   9.000  0.00  0.00    +0.059 A 
ENDBRANCH   4   7
BRANCH   1  19
ATOM     16  C2  CHE B   00      1.000   5.490   7.000  0.00  0.00    +0.037 A 
ATOM     17  C3  CHE B   00      1.000   4.580   4.000  0.00  0.00    +0.014 A 
ATOM     18  C4  CHE B   00      1.000   3.220   6.000  0.00  0.00    +0.012 A 
ATOM     19  C5  CHE B   00      1.000   2.770   3.000  0.00  0.00    +0.017 A 
ATOM     20  C21 CHE B   00      1.000   3.640   6.000  0.00  0.00    +0.012 A 
ATOM     21  C22 CHE B   00      1.000   4.990   2.000  0.00  0.00    +0.014 A 
BRANCH  16  23
ATOM     22  N1  CHE B   00      1.000   7.370   0.000  0.00  0.00    -0.325 N 
ATOM     23  C1  CHE B   00      1.000   6.930   2.000  0.00  0.00    +0.242 C 
ATOM     24  O1  CHE B   00      1.000   7.740   7.000  0.00  0.00    -0.270 OA
ATOM     25  H1  CHE B   00      1.000   7.760   8.000  0.00  0.00    +0.145 HD
ATOM     26  H2  CHE B   00      1.000   7.240   8.000  0.00  0.00    +0.145 HD
ENDBRANCH  16  23
ENDBRANCH   1  19
BRANCH   3  27
ATOM     27  C8  CHE B   00      1.000  -1.630   3.000  0.00  0.00    +0.091 A 
ATOM     28  C9  CHE B   00      1.000  -1.580   7.000  0.00  0.00    +0.030 A 
ATOM     29  C10 CHE B   00      1.000  -2.530   9.000  0.00  0.00    +0.004 A 
ATOM     30  C11 CHE B   00      1.000  -3.500   1.000  0.00  0.00    +0.020 A 
ATOM     31  C12 CHE B   00      1.000  -3.550   4.000  0.00  0.00    +0.111 A 
ATOM     32  N3  CHE B   00      1.000  -2.600   3.000  0.00  0.00    -0.253 NA
ENDBRANCH   3  27
TORSDOF 4
