REMARK  Name = dock_mp/CHEMBL4/CHEMBL409525.pdb
REMARK  8 active torsions:
REMARK  status: ('A' for Active; 'I' for Inactive)
REMARK    1  A    between atoms: C1_1  and  N1_2
REMARK    2  A    between atoms: N1_2  and  C2_3
REMARK    3  A    between atoms: N1_2  and  C3_4
REMARK    4  A    between atoms: C3_4  and  C4_5
REMARK    5  A    between atoms: C4_5  and  O1_6
REMARK    6  A    between atoms: O1_6  and  C5_7
REMARK    7  A    between atoms: C9_11  and  C10_12
REMARK    8  A    between atoms: C15_19  and  C16_20
REMARK                            x       y       z     vdW  Elec       q    Type
REMARK                         _______ _______ _______ _____ _____    ______ ____
ROOT
ATOM      1  C5  CHE B   05      1.000   1.800   3.000  0.00  0.00    +0.122 A 
ATOM      2  C6  CHE B   05      1.000   1.150   9.000  0.00  0.00    +0.046 A 
ATOM      3  C7  CHE B   05      1.000  -0.200   7.000  0.00  0.00    +0.014 A 
ATOM      4  C8  CHE B   05      1.000  -0.870   0.000  0.00  0.00    +0.008 A 
ATOM      5  C9  CHE B   05      1.000  -2.220   4.000  0.00  0.00    -0.003 A 
ATOM      6  C21 CHE B   05      1.000  -2.900   2.000  0.00  0.00    +0.029 A 
ATOM      7  C22 CHE B   05      1.000  -2.230   4.000  0.00  0.00    +0.112 A 
ATOM      8  N5  CHE B   05      1.000  -0.890   6.000  0.00  0.00    -0.255 NA
ATOM      9  C23 CHE B   05      1.000  -0.230   8.000  0.00  0.00    +0.075 A 
ATOM     10  C24 CHE B   05      1.000   1.110   1.000  0.00  0.00    +0.074 A 
ENDROOT
BRANCH   5  11
ATOM     11  C10 CHE B   05      1.000  -2.980   8.000  0.00  0.00    +0.033 A 
ATOM     12  C11 CHE B   05      1.000  -2.800   7.000  0.00  0.00    +0.048 A 
ATOM     13  C12 CHE B   05      1.000  -1.940   3.000  0.00  0.00    +0.057 C 
ATOM     14  C13 CHE B   05      1.000  -2.700   1.000  0.00  0.00    +0.029 C 
ATOM     15  C14 CHE B   05      1.000  -3.600   7.000  0.00  0.00    +0.144 C 
ATOM     16  N2  CHE B   05      1.000  -3.730   2.000  0.00  0.00    -0.267 N 
ATOM     17  N3  CHE B   05      1.000  -4.500   1.000  0.00  0.00    -0.169 NA
ATOM     18  C15 CHE B   05      1.000  -4.050   9.000  0.00  0.00    +0.119 A 
BRANCH  18  19
ATOM     19  C16 CHE B   05      1.000  -4.610   8.000  0.00  0.00    +0.091 A 
ATOM     20  C17 CHE B   05      1.000  -3.830   1.000  0.00  0.00    +0.030 A 
ATOM     21  C18 CHE B   05      1.000  -4.290   8.000  0.00  0.00    +0.004 A 
ATOM     22  C19 CHE B   05      1.000  -5.610   1.000  0.00  0.00    +0.020 A 
ATOM     23  C20 CHE B   05      1.000  -6.370   4.000  0.00  0.00    +0.111 A 
ATOM     24  N4  CHE B   05      1.000  -5.890   0.000  0.00  0.00    -0.253 NA
ENDBRANCH  18  19
ENDBRANCH   5  11
BRANCH   1  25
ATOM     25  O1  CHE B   05      1.000   3.150   6.000  0.00  0.00    -0.494 OA
BRANCH  25  26
ATOM     26  C4  CHE B   05      1.000   4.020   8.000  0.00  0.00    +0.210 C 
BRANCH  26  27
ATOM     27  C3  CHE B   05      1.000   5.430   4.000  0.00  0.00    -0.038 C 
BRANCH  27  29
ATOM     28  C1  CHE B   05      1.000   6.800   4.000  0.00  0.00    -0.096 C 
ATOM     29  N1  CHE B   05      1.000   6.370   1.000  0.00  0.00    +0.378 N 
ATOM     30  C2  CHE B   05      1.000   7.510   5.000  0.00  0.00    -0.096 C 
ATOM     31  H4  CHE B   05      1.000   5.980   6.000  0.00  0.00    -0.082 HD
ENDBRANCH  27  29
ENDBRANCH  26  27
ENDBRANCH  25  26
ENDBRANCH   1  25
TORSDOF 6
