REMARK  Name = dock_mp/CHEMBL4/CHEMBL481546.pdb
REMARK  3 active torsions:
REMARK  status: ('A' for Active; 'I' for Inactive)
REMARK    1  A    between atoms: C1_1  and  C2_2
REMARK    2  A    between atoms: C3_4  and  C4_5
REMARK    3  A    between atoms: C11_15  and  C12_16
REMARK                            x       y       z     vdW  Elec       q    Type
REMARK                         _______ _______ _______ _____ _____    ______ ____
ROOT
ATOM      1  C4  CHE B   05      1.000  -0.460   6.000  0.00  0.00    +0.117 A 
ATOM      2  N2  CHE B   05      1.000   0.830   7.000  0.00  0.00    -0.212 NA
ATOM      3  C5  CHE B   05      1.000   1.620   0.000  0.00  0.00    +0.197 A 
ATOM      4  N3  CHE B   05      1.000   3.050   5.000  0.00  0.00    -0.301 N 
ATOM      5  C6  CHE B   05      1.000   3.680   1.000  0.00  0.00    +0.108 C 
ATOM      6  C7  CHE B   05      1.000   5.150   5.000  0.00  0.00    +0.019 C 
ATOM      7  C8  CHE B   05      1.000   5.840   5.000  0.00  0.00    +0.003 C 
ATOM      8  C9  CHE B   05      1.000   4.960   4.000  0.00  0.00    +0.019 C 
ATOM      9  C10 CHE B   05      1.000   3.800   7.000  0.00  0.00    +0.108 C 
ATOM     10  N4  CHE B   05      1.000   0.780   4.000  0.00  0.00    -0.325 N 
ATOM     11  C11 CHE B   05      1.000  -0.490   0.000  0.00  0.00    +0.078 A 
ATOM     12  H14 CHE B   05      1.000   1.100   8.000  0.00  0.00    +0.169 HD
ENDROOT
BRANCH  11  13
ATOM     13  C12 CHE B   05      1.000  -1.620   4.000  0.00  0.00    +0.019 A 
ATOM     14  C13 CHE B   05      1.000  -2.550   0.000  0.00  0.00    +0.015 A 
ATOM     15  C14 CHE B   05      1.000  -3.580   8.000  0.00  0.00    +0.049 A 
ATOM     16  C15 CHE B   05      1.000  -3.700   1.000  0.00  0.00    +0.156 A 
ATOM     17  N5  CHE B   05      1.000  -4.590   4.000  0.00  0.00    -0.215 NA
ATOM     18  C16 CHE B   05      1.000  -4.210   5.000  0.00  0.00    +0.246 A 
ATOM     19  N6  CHE B   05      1.000  -3.080   7.000  0.00  0.00    -0.154 NA
ATOM     20  N7  CHE B   05      1.000  -2.780   7.000  0.00  0.00    -0.220 N 
ATOM     21  C17 CHE B   05      1.000  -1.780   5.000  0.00  0.00    +0.124 A 
ENDBRANCH  11  13
BRANCH   1  25
ATOM     22  C1  CHE B   05      1.000  -2.590   4.000  0.00  0.00    +0.068 C 
ATOM     23  C2  CHE B   05      1.000  -2.650   8.000  0.00  0.00    +0.074 A 
ATOM     24  N1  CHE B   05      1.000  -1.690   2.000  0.00  0.00    -0.247 NA
ATOM     25  C3  CHE B   05      1.000  -1.580   9.000  0.00  0.00    +0.092 A 
ATOM     26  C18 CHE B   05      1.000  -2.540   9.000  0.00  0.00    +0.033 A 
ATOM     27  C19 CHE B   05      1.000  -3.570   5.000  0.00  0.00    +0.042 A 
ATOM     28  C20 CHE B   05      1.000  -3.620   8.000  0.00  0.00    +0.144 A 
ATOM     29  F1  CHE B   05      1.000  -4.600   6.000  0.00  0.00    -0.204 F 
ENDBRANCH   1  25
TORSDOF 2
