REMARK  Name = dock_mp/CHEMBL4/CHEMBL492634.pdb
REMARK  6 active torsions:
REMARK  status: ('A' for Active; 'I' for Inactive)
REMARK    1  A    between atoms: C1_1  and  C2_2
REMARK    2  A    between atoms: C6_6  and  C7_7
REMARK    3  A    between atoms: C8_9  and  C9_10
REMARK    4  A    between atoms: C9_10  and  C10_11
REMARK    5  A    between atoms: C14_15  and  C15_16
REMARK    6  A    between atoms: C17_21  and  C18_22
REMARK                            x       y       z     vdW  Elec       q    Type
REMARK                         _______ _______ _______ _____ _____    ______ ____
ROOT
ATOM      1  C7  CHE B   06      1.000  -0.610   5.000  0.00  0.00    +0.092 A 
ATOM      2  N1  CHE B   06      1.000   0.490   7.000  0.00  0.00    -0.340 N 
ATOM      3  C8  CHE B   06      1.000   1.340   0.000  0.00  0.00    +0.113 A 
ATOM      4  N3  CHE B   06      1.000   0.740   7.000  0.00  0.00    -0.231 NA
ATOM      5  C17 CHE B   06      1.000  -0.450   4.000  0.00  0.00    +0.098 A 
ATOM      6  H7  CHE B   06      1.000   0.720   5.000  0.00  0.00    +0.167 HD
ENDROOT
BRANCH   5   7
ATOM      7  C18 CHE B   06      1.000  -1.330   5.000  0.00  0.00    +0.005 A 
ATOM      8  C19 CHE B   06      1.000  -1.620   1.000  0.00  0.00    +0.012 A 
ATOM      9  C20 CHE B   06      1.000  -2.470   6.000  0.00  0.00    +0.030 A 
ATOM     10  C21 CHE B   06      1.000  -3.050   7.000  0.00  0.00    +0.089 A 
ATOM     11  N4  CHE B   06      1.000  -3.890   0.000  0.00  0.00    -0.252 NA
ATOM     12  C22 CHE B   06      1.000  -4.440   0.000  0.00  0.00    +0.131 A 
ATOM     13  C23 CHE B   06      1.000  -4.140   0.000  0.00  0.00    +0.131 A 
ATOM     14  N5  CHE B   06      1.000  -3.300   1.000  0.00  0.00    -0.252 NA
ATOM     15  C24 CHE B   06      1.000  -2.770   0.000  0.00  0.00    +0.090 A 
ATOM     16  C25 CHE B   06      1.000  -1.910   9.000  0.00  0.00    +0.040 A 
ENDBRANCH   5   7
BRANCH   1  22
ATOM     17  C1  CHE B   06      1.000  -4.070   4.000  0.00  0.00    +0.065 C 
ATOM     18  C2  CHE B   06      1.000  -3.410   0.000  0.00  0.00    +0.039 A 
ATOM     19  C3  CHE B   06      1.000  -3.830   9.000  0.00  0.00    +0.023 A 
ATOM     20  C4  CHE B   06      1.000  -3.190   4.000  0.00  0.00    +0.004 A 
ATOM     21  C5  CHE B   06      1.000  -2.110   8.000  0.00  0.00    +0.030 A 
ATOM     22  C6  CHE B   06      1.000  -1.710   6.000  0.00  0.00    +0.090 A 
ATOM     23  N6  CHE B   06      1.000  -2.380   0.000  0.00  0.00    -0.250 NA
ENDBRANCH   1  22
BRANCH   3  24
ATOM     24  C9  CHE B   06      1.000   2.690   8.000  0.00  0.00    +0.109 C 
BRANCH  24  25
ATOM     25  C10 CHE B   06      1.000   3.740   7.000  0.00  0.00    -0.039 A 
ATOM     26  C11 CHE B   06      1.000   4.070   4.000  0.00  0.00    +0.004 A 
ATOM     27  C12 CHE B   06      1.000   5.020   9.000  0.00  0.00    +0.001 A 
ATOM     28  C13 CHE B   06      1.000   5.640   3.000  0.00  0.00    +0.013 A 
ATOM     29  C14 CHE B   06      1.000   5.310   0.000  0.00  0.00    +0.037 A 
ATOM     30  C16 CHE B   06      1.000   4.350   2.000  0.00  0.00    +0.017 A 
BRANCH  29  31
ATOM     31  C15 CHE B   06      1.000   5.950   3.000  0.00  0.00    +0.242 C 
ATOM     32  O1  CHE B   06      1.000   6.790   0.000  0.00  0.00    -0.270 OA
ATOM     33  N2  CHE B   06      1.000   5.580   4.000  0.00  0.00    -0.325 N 
ATOM     34  H13 CHE B   06      1.000   6.040   4.000  0.00  0.00    +0.145 HD
ATOM     35  H14 CHE B   06      1.000   4.920   5.000  0.00  0.00    +0.145 HD
ENDBRANCH  29  31
ENDBRANCH  24  25
ENDBRANCH   3  24
TORSDOF 5
