REMARK  Name = dock_mp/CHEMBL4/CHEMBL406411.pdb
REMARK  8 active torsions:
REMARK  status: ('A' for Active; 'I' for Inactive)
REMARK    1  A    between atoms: C1_1  and  N1_2
REMARK    2  A    between atoms: C5_6  and  C6_7
REMARK    3  A    between atoms: C6_7  and  C7_8
REMARK    4  A    between atoms: C7_8  and  C8_9
REMARK    5  A    between atoms: C8_9  and  O1_10
REMARK    6  A    between atoms: O1_10  and  C9_11
REMARK    7  A    between atoms: C13_15  and  C14_16
REMARK    8  A    between atoms: C19_23  and  C20_24
REMARK                            x       y       z     vdW  Elec       q    Type
REMARK                         _______ _______ _______ _____ _____    ______ ____
ROOT
ATOM      1  C9  CHE B   04      1.000   0.520   4.000  0.00  0.00    +0.123 A 
ATOM      2  C10 CHE B   04      1.000  -0.360   5.000  0.00  0.00    +0.046 A 
ATOM      3  C11 CHE B   04      1.000  -1.730   0.000  0.00  0.00    +0.014 A 
ATOM      4  C12 CHE B   04      1.000  -2.220   9.000  0.00  0.00    +0.008 A 
ATOM      5  C13 CHE B   04      1.000  -3.600   6.000  0.00  0.00    -0.003 A 
ATOM      6  C25 CHE B   04      1.000  -4.010   6.000  0.00  0.00    +0.029 A 
ATOM      7  C26 CHE B   04      1.000  -3.120   2.000  0.00  0.00    +0.112 A 
ATOM      8  N5  CHE B   04      1.000  -1.800   8.000  0.00  0.00    -0.255 NA
ATOM      9  C27 CHE B   04      1.000  -1.320   7.000  0.00  0.00    +0.075 A 
ATOM     10  C28 CHE B   04      1.000   0.020   7.000  0.00  0.00    +0.074 A 
ENDROOT
BRANCH   5  11
ATOM     11  C14 CHE B   04      1.000  -4.480   7.000  0.00  0.00    +0.033 A 
ATOM     12  C15 CHE B   04      1.000  -4.720   6.000  0.00  0.00    +0.048 A 
ATOM     13  C16 CHE B   04      1.000  -4.290   6.000  0.00  0.00    +0.057 C 
ATOM     14  C17 CHE B   04      1.000  -5.230   7.000  0.00  0.00    +0.029 C 
ATOM     15  C18 CHE B   04      1.000  -5.880   6.000  0.00  0.00    +0.144 C 
ATOM     16  N2  CHE B   04      1.000  -5.600   6.000  0.00  0.00    -0.267 N 
ATOM     17  N3  CHE B   04      1.000  -5.920   8.000  0.00  0.00    -0.169 NA
ATOM     18  C19 CHE B   04      1.000  -5.260   4.000  0.00  0.00    +0.119 A 
BRANCH  18  19
ATOM     19  C20 CHE B   04      1.000  -5.440   7.000  0.00  0.00    +0.091 A 
ATOM     20  C21 CHE B   04      1.000  -6.050   0.000  0.00  0.00    +0.030 A 
ATOM     21  C22 CHE B   04      1.000  -6.200   6.000  0.00  0.00    +0.004 A 
ATOM     22  C23 CHE B   04      1.000  -5.720   5.000  0.00  0.00    +0.020 A 
ATOM     23  C24 CHE B   04      1.000  -5.110   3.000  0.00  0.00    +0.111 A 
ATOM     24  N4  CHE B   04      1.000  -5.000   3.000  0.00  0.00    -0.253 NA
ENDBRANCH  18  19
ENDBRANCH   5  11
BRANCH   1  25
ATOM     25  O1  CHE B   04      1.000   1.890   2.000  0.00  0.00    -0.492 OA
BRANCH  25  26
ATOM     26  C8  CHE B   04      1.000   2.840   4.000  0.00  0.00    +0.229 C 
BRANCH  26  27
ATOM     27  C7  CHE B   04      1.000   4.270   0.000  0.00  0.00    +0.039 C 
BRANCH  27  28
ATOM     28  C6  CHE B   04      1.000   4.550   9.000  0.00  0.00    -0.012 C 
BRANCH  28  34
ATOM     29  C1  CHE B   04      1.000   6.860   5.000  0.00  0.00    -0.096 C 
ATOM     30  N1  CHE B   04      1.000   6.990   7.000  0.00  0.00    +0.380 N 
ATOM     31  C2  CHE B   04      1.000   8.150   4.000  0.00  0.00    -0.079 C 
ATOM     32  C3  CHE B   04      1.000   7.650   4.000  0.00  0.00    -0.020 C 
ATOM     33  C4  CHE B   04      1.000   6.160   5.000  0.00  0.00    -0.017 C 
ATOM     34  C5  CHE B   04      1.000   5.940   2.000  0.00  0.00    -0.069 C 
ATOM     35  H4  CHE B   04      1.000   7.160   9.000  0.00  0.00    -0.082 HD
ENDBRANCH  28  34
ENDBRANCH  27  28
ENDBRANCH  26  27
ENDBRANCH  25  26
ENDBRANCH   1  25
TORSDOF 7
