REMARK  Name = dock_mp/CHEMBL4/CHEMBL425177.pdb
REMARK  3 active torsions:
REMARK  status: ('A' for Active; 'I' for Inactive)
REMARK    1  A    between atoms: C1_1  and  C2_2
REMARK    2  A    between atoms: C8_9  and  C9_10
REMARK    3  A    between atoms: C11_15  and  C12_16
REMARK                            x       y       z     vdW  Elec       q    Type
REMARK                         _______ _______ _______ _____ _____    ______ ____
ROOT
ATOM      1  C9  CHE B   01      1.000   0.060   8.000  0.00  0.00    +0.052 A 
ATOM      2  S1  CHE B   01      1.000  -0.600   8.000  0.00  0.00    -0.052 S 
ATOM      3  C10 CHE B   01      1.000   1.050   9.000  0.00  0.00    +0.157 A 
ATOM      4  N2  CHE B   01      1.000   1.110   1.000  0.00  0.00    -0.337 N 
ATOM      5  N3  CHE B   01      1.000   1.710   2.000  0.00  0.00    -0.223 NA
ATOM      6  C11 CHE B   01      1.000   1.360   7.000  0.00  0.00    +0.106 A 
ATOM      7  H8  CHE B   01      1.000   0.730   7.000  0.00  0.00    +0.144 HD
ATOM      8  H9  CHE B   01      1.000   1.530   6.000  0.00  0.00    +0.144 HD
ENDROOT
BRANCH   1  17
ATOM      9  C1  CHE B   01      1.000  -3.550   7.000  0.00  0.00    +0.065 C 
ATOM     10  C2  CHE B   01      1.000  -3.070   2.000  0.00  0.00    +0.039 A 
ATOM     11  C3  CHE B   01      1.000  -3.750   6.000  0.00  0.00    +0.025 A 
ATOM     12  C4  CHE B   01      1.000  -3.330   7.000  0.00  0.00    +0.031 A 
ATOM     13  C5  CHE B   01      1.000  -2.290   0.000  0.00  0.00    +0.090 A 
ATOM     14  N1  CHE B   01      1.000  -1.900   1.000  0.00  0.00    -0.253 NA
ATOM     15  C6  CHE B   01      1.000  -0.870   6.000  0.00  0.00    +0.112 A 
ATOM     16  C7  CHE B   01      1.000  -0.230   4.000  0.00  0.00    +0.031 A 
ATOM     17  C8  CHE B   01      1.000  -0.590   9.000  0.00  0.00    +0.020 A 
ATOM     18  C17 CHE B   01      1.000  -1.660   5.000  0.00  0.00    +0.098 A 
ATOM     19  N5  CHE B   01      1.000  -2.050   0.000  0.00  0.00    -0.250 NA
ENDBRANCH   1  17
BRANCH   6  20
ATOM     20  C12 CHE B   01      1.000   2.320   3.000  0.00  0.00    +0.090 A 
ATOM     21  C13 CHE B   01      1.000   3.420   4.000  0.00  0.00    +0.030 A 
ATOM     22  C14 CHE B   01      1.000   4.330   0.000  0.00  0.00    +0.004 A 
ATOM     23  C15 CHE B   01      1.000   4.130   2.000  0.00  0.00    +0.020 A 
ATOM     24  C16 CHE B   01      1.000   3.010   4.000  0.00  0.00    +0.111 A 
ATOM     25  N4  CHE B   01      1.000   2.130   1.000  0.00  0.00    -0.253 NA
ENDBRANCH   6  20
TORSDOF 2
