REMARK  Name = dock_mp/CHEMBL4/CHEMBL445934.pdb
REMARK  6 active torsions:
REMARK  status: ('A' for Active; 'I' for Inactive)
REMARK    1  A    between atoms: C1_1  and  C2_2
REMARK    2  A    between atoms: C6_6  and  C7_7
REMARK    3  A    between atoms: N2_10  and  C9_11
REMARK    4  A    between atoms: C9_11  and  C10_12
REMARK    5  A    between atoms: C13_15  and  C14_16
REMARK    6  A    between atoms: C17_21  and  C18_22
REMARK                            x       y       z     vdW  Elec       q    Type
REMARK                         _______ _______ _______ _____ _____    ______ ____
ROOT
ATOM      1  C7  CHE B   09      1.000  -0.730   4.000  0.00  0.00    +0.094 A 
ATOM      2  N1  CHE B   09      1.000   0.280   3.000  0.00  0.00    -0.324 N 
ATOM      3  C8  CHE B   09      1.000   1.440   1.000  0.00  0.00    +0.194 A 
ATOM      4  N2  CHE B   09      1.000   2.720   8.000  0.00  0.00    -0.311 N 
ATOM      5  N4  CHE B   09      1.000   1.080   7.000  0.00  0.00    -0.214 NA
ATOM      6  C17 CHE B   09      1.000  -0.220   6.000  0.00  0.00    +0.100 A 
ATOM      7  H7  CHE B   09      1.000   0.210   7.000  0.00  0.00    +0.169 HD
ATOM      8  H8  CHE B   09      1.000   2.770   5.000  0.00  0.00    +0.149 HD
ENDROOT
BRANCH   6   9
ATOM      9  C18 CHE B   09      1.000  -0.990   9.000  0.00  0.00    +0.006 A 
ATOM     10  C19 CHE B   09      1.000  -2.020   4.000  0.00  0.00    +0.014 A 
ATOM     11  C20 CHE B   09      1.000  -2.780   3.000  0.00  0.00    +0.050 A 
ATOM     12  C21 CHE B   09      1.000  -2.520   4.000  0.00  0.00    +0.166 A 
ATOM     13  O1  CHE B   09      1.000  -3.130   6.000  0.00  0.00    -0.453 OA
ATOM     14  C22 CHE B   09      1.000  -2.250   9.000  0.00  0.00    +0.466 C 
ATOM     15  O2  CHE B   09      1.000  -1.480   8.000  0.00  0.00    -0.453 OA
ATOM     16  C23 CHE B   09      1.000  -1.510   1.000  0.00  0.00    +0.167 A 
ATOM     17  C24 CHE B   09      1.000  -0.760   5.000  0.00  0.00    +0.059 A 
ENDBRANCH   6   9
BRANCH   1  23
ATOM     18  C1  CHE B   09      1.000  -4.550   0.000  0.00  0.00    +0.065 C 
ATOM     19  C2  CHE B   09      1.000  -3.950   8.000  0.00  0.00    +0.039 A 
ATOM     20  C3  CHE B   09      1.000  -4.650   3.000  0.00  0.00    +0.023 A 
ATOM     21  C4  CHE B   09      1.000  -4.060   9.000  0.00  0.00    +0.004 A 
ATOM     22  C5  CHE B   09      1.000  -2.770   8.000  0.00  0.00    +0.030 A 
ATOM     23  C6  CHE B   09      1.000  -2.100   1.000  0.00  0.00    +0.090 A 
ATOM     24  N5  CHE B   09      1.000  -2.700   5.000  0.00  0.00    -0.250 NA
ENDBRANCH   1  23
BRANCH   4  25
ATOM     25  C9  CHE B   09      1.000   3.920   6.000  0.00  0.00    +0.139 C 
BRANCH  25  26
ATOM     26  C10 CHE B   09      1.000   4.310   5.000  0.00  0.00    -0.030 A 
ATOM     27  C11 CHE B   09      1.000   5.110   1.000  0.00  0.00    +0.006 A 
ATOM     28  C12 CHE B   09      1.000   5.530   2.000  0.00  0.00    +0.019 A 
ATOM     29  C13 CHE B   09      1.000   5.160   4.000  0.00  0.00    +0.052 A 
ATOM     30  C15 CHE B   09      1.000   4.370   8.000  0.00  0.00    +0.019 A 
ATOM     31  C16 CHE B   09      1.000   3.960   9.000  0.00  0.00    +0.006 A 
BRANCH  29  32
ATOM     32  C14 CHE B   09      1.000   5.630   5.000  0.00  0.00    +0.099 C 
ATOM     33  N3  CHE B   09      1.000   5.990   9.000  0.00  0.00    -0.191 NA
ENDBRANCH  29  32
ENDBRANCH  25  26
ENDBRANCH   4  25
TORSDOF 5
