REMARK  Name = dock_mp/CHEMBL4/CHEMBL410456.pdb
REMARK  4 active torsions:
REMARK  status: ('A' for Active; 'I' for Inactive)
REMARK    1  A    between atoms: C1_2  and  C2_4
REMARK    2  A    between atoms: C5_7  and  C6_8
REMARK    3  A    between atoms: C7_10  and  C8_11
REMARK    4  A    between atoms: C16_21  and  C17_22
REMARK                            x       y       z     vdW  Elec       q    Type
REMARK                         _______ _______ _______ _____ _____    ______ ____
ROOT
ATOM      1  C6  CHE B   04      1.000   1.950   4.000  0.00  0.00    +0.139 A 
ATOM      2  N2  CHE B   04      1.000   0.870   9.000  0.00  0.00    -0.227 NA
ATOM      3  C7  CHE B   04      1.000  -0.270   1.000  0.00  0.00    +0.099 A 
ATOM      4  C16 CHE B   04      1.000   0.100   2.000  0.00  0.00    +0.093 A 
ATOM      5  N4  CHE B   04      1.000   1.450   2.000  0.00  0.00    -0.336 N 
ATOM      6  H16 CHE B   04      1.000   2.010   9.000  0.00  0.00    +0.167 HD
ENDROOT
BRANCH   3   7
ATOM      7  C8  CHE B   04      1.000  -1.630   1.000  0.00  0.00    +0.006 A 
ATOM      8  C9  CHE B   04      1.000  -2.010   1.000  0.00  0.00    +0.014 A 
ATOM      9  C10 CHE B   04      1.000  -3.280   4.000  0.00  0.00    +0.050 A 
ATOM     10  C11 CHE B   04      1.000  -4.150   7.000  0.00  0.00    +0.162 A 
ATOM     11  O2  CHE B   04      1.000  -5.430   6.000  0.00  0.00    -0.485 OA
ATOM     12  C12 CHE B   04      1.000  -6.470   2.000  0.00  0.00    +0.270 C 
ATOM     13  C13 CHE B   04      1.000  -5.990   6.000  0.00  0.00    +0.270 C 
ATOM     14  O3  CHE B   04      1.000  -4.700   7.000  0.00  0.00    -0.485 OA
ATOM     15  C14 CHE B   04      1.000  -3.790   7.000  0.00  0.00    +0.163 A 
ATOM     16  C15 CHE B   04      1.000  -2.510   6.000  0.00  0.00    +0.059 A 
ENDBRANCH   3   7
BRANCH   1  20
ATOM     17  C2  CHE B   04      1.000   5.970   3.000  0.00  0.00    +0.037 A 
ATOM     18  C3  CHE B   04      1.000   5.650   1.000  0.00  0.00    +0.014 A 
ATOM     19  C4  CHE B   04      1.000   4.300   7.000  0.00  0.00    +0.012 A 
ATOM     20  C5  CHE B   04      1.000   3.350   6.000  0.00  0.00    +0.017 A 
ATOM     21  C22 CHE B   04      1.000   3.660   9.000  0.00  0.00    +0.012 A 
ATOM     22  C23 CHE B   04      1.000   5.010   1.000  0.00  0.00    +0.014 A 
BRANCH  17  24
ATOM     23  N1  CHE B   04      1.000   7.770   2.000  0.00  0.00    -0.325 N 
ATOM     24  C1  CHE B   04      1.000   7.380   2.000  0.00  0.00    +0.242 C 
ATOM     25  O1  CHE B   04      1.000   8.250   5.000  0.00  0.00    -0.270 OA
ATOM     26  H1  CHE B   04      1.000   7.780   3.000  0.00  0.00    +0.145 HD
ATOM     27  H2  CHE B   04      1.000   8.080   0.000  0.00  0.00    +0.145 HD
ENDBRANCH  17  24
ENDBRANCH   1  20
BRANCH   4  28
ATOM     28  C17 CHE B   04      1.000  -0.750   4.000  0.00  0.00    +0.089 A 
ATOM     29  C18 CHE B   04      1.000  -1.600   6.000  0.00  0.00    +0.030 A 
ATOM     30  C19 CHE B   04      1.000  -2.360   8.000  0.00  0.00    +0.004 A 
ATOM     31  C20 CHE B   04      1.000  -2.260   5.000  0.00  0.00    +0.020 A 
ATOM     32  C21 CHE B   04      1.000  -1.400   1.000  0.00  0.00    +0.111 A 
ATOM     33  N3  CHE B   04      1.000  -0.660   6.000  0.00  0.00    -0.253 NA
ENDBRANCH   4  28
TORSDOF 4
