REMARK  Name = dock_mp/CHEMBL4/CHEMBL409356.pdb
REMARK  6 active torsions:
REMARK  status: ('A' for Active; 'I' for Inactive)
REMARK    1  A    between atoms: C1_1  and  N1_2
REMARK    2  A    between atoms: C4_6  and  C5_8
REMARK    3  A    between atoms: C5_8  and  O2_9
REMARK    4  A    between atoms: O2_9  and  C6_10
REMARK    5  A    between atoms: C10_14  and  C11_15
REMARK    6  A    between atoms: C16_22  and  C17_23
REMARK                            x       y       z     vdW  Elec       q    Type
REMARK                         _______ _______ _______ _____ _____    ______ ____
ROOT
ATOM      1  C6  CHE B   03      1.000   0.820   6.000  0.00  0.00    +0.123 A 
ATOM      2  C7  CHE B   03      1.000   0.000   0.000  0.00  0.00    +0.046 A 
ATOM      3  C8  CHE B   03      1.000  -1.330   4.000  0.00  0.00    +0.014 A 
ATOM      4  C9  CHE B   03      1.000  -1.780   6.000  0.00  0.00    +0.008 A 
ATOM      5  C10 CHE B   03      1.000  -3.110   5.000  0.00  0.00    -0.003 A 
ATOM      6  C22 CHE B   03      1.000  -3.580   9.000  0.00  0.00    +0.029 A 
ATOM      7  C23 CHE B   03      1.000  -2.690   8.000  0.00  0.00    +0.112 A 
ATOM      8  N6  CHE B   03      1.000  -1.380   8.000  0.00  0.00    -0.255 NA
ATOM      9  C24 CHE B   03      1.000  -0.900   7.000  0.00  0.00    +0.075 A 
ATOM     10  C25 CHE B   03      1.000   0.410   8.000  0.00  0.00    +0.074 A 
ENDROOT
BRANCH   5  11
ATOM     11  C11 CHE B   03      1.000  -4.070   8.000  0.00  0.00    +0.033 A 
ATOM     12  C12 CHE B   03      1.000  -4.060   9.000  0.00  0.00    +0.048 A 
ATOM     13  C13 CHE B   03      1.000  -3.370   8.000  0.00  0.00    +0.057 C 
ATOM     14  C14 CHE B   03      1.000  -4.590   6.000  0.00  0.00    +0.029 C 
ATOM     15  C15 CHE B   03      1.000  -5.200   3.000  0.00  0.00    +0.144 C 
ATOM     16  N3  CHE B   03      1.000  -5.130   0.000  0.00  0.00    -0.267 N 
ATOM     17  N4  CHE B   03      1.000  -5.750   1.000  0.00  0.00    -0.169 NA
ATOM     18  C16 CHE B   03      1.000  -5.140   8.000  0.00  0.00    +0.119 A 
BRANCH  18  19
ATOM     19  C17 CHE B   03      1.000  -5.420   3.000  0.00  0.00    +0.091 A 
ATOM     20  C18 CHE B   03      1.000  -4.430   0.000  0.00  0.00    +0.030 A 
ATOM     21  C19 CHE B   03      1.000  -4.680   0.000  0.00  0.00    +0.004 A 
ATOM     22  C20 CHE B   03      1.000  -5.830   0.000  0.00  0.00    +0.020 A 
ATOM     23  C21 CHE B   03      1.000  -6.780   6.000  0.00  0.00    +0.111 A 
ATOM     24  N5  CHE B   03      1.000  -6.540   7.000  0.00  0.00    -0.253 NA
ENDBRANCH  18  19
ENDBRANCH   5  11
BRANCH   1  25
ATOM     25  O2  CHE B   03      1.000   2.180   5.000  0.00  0.00    -0.483 OA
BRANCH  25  26
ATOM     26  C5  CHE B   03      1.000   2.670   7.000  0.00  0.00    +0.324 C 
BRANCH  26  32
ATOM     27  C1  CHE B   03      1.000   7.770   3.000  0.00  0.00    -0.096 C 
ATOM     28  N1  CHE B   03      1.000   6.760   2.000  0.00  0.00    +0.380 N 
ATOM     29  C2  CHE B   03      1.000   7.330   1.000  0.00  0.00    -0.060 C 
ATOM     30  C3  CHE B   03      1.000   6.350   3.000  0.00  0.00    +0.089 C 
ATOM     31  N2  CHE B   03      1.000   4.990   5.000  0.00  0.00    -0.302 N 
ATOM     32  C4  CHE B   03      1.000   4.090   4.000  0.00  0.00    +0.253 C 
ATOM     33  O1  CHE B   03      1.000   4.610   5.000  0.00  0.00    -0.272 OA
ATOM     34  C26 CHE B   03      1.000   4.480   0.000  0.00  0.00    +0.089 C 
ATOM     35  C27 CHE B   03      1.000   5.610   8.000  0.00  0.00    -0.060 C 
ATOM     36  H4  CHE B   03      1.000   6.370   3.000  0.00  0.00    -0.082 HD
ENDBRANCH  26  32
ENDBRANCH  25  26
ENDBRANCH   1  25
TORSDOF 5
