REMARK  Name = dock_mp/CHEMBL4/CHEMBL480583.pdb
REMARK  5 active torsions:
REMARK  status: ('A' for Active; 'I' for Inactive)
REMARK    1  A    between atoms: C1_1  and  C2_2
REMARK    2  A    between atoms: C3_4  and  C4_5
REMARK    3  A    between atoms: N4_11  and  S1_12
REMARK    4  A    between atoms: S1_12  and  C8_15
REMARK    5  A    between atoms: C11_19  and  C12_20
REMARK                            x       y       z     vdW  Elec       q    Type
REMARK                         _______ _______ _______ _____ _____    ______ ____
ROOT
ATOM      1  C4  CHE B   05      1.000  -1.300   7.000  0.00  0.00    +0.117 A 
ATOM      2  N2  CHE B   05      1.000  -0.150   3.000  0.00  0.00    -0.212 NA
ATOM      3  C5  CHE B   05      1.000   0.800   3.000  0.00  0.00    +0.197 A 
ATOM      4  N3  CHE B   05      1.000   2.160   4.000  0.00  0.00    -0.299 N 
ATOM      5  C6  CHE B   05      1.000   3.050   6.000  0.00  0.00    +0.125 C 
ATOM      6  C7  CHE B   05      1.000   4.490   8.000  0.00  0.00    +0.128 C 
ATOM      7  N4  CHE B   05      1.000   4.820   6.000  0.00  0.00    -0.178 NA
ATOM      8  C9  CHE B   05      1.000   4.050   6.000  0.00  0.00    +0.128 C 
ATOM      9  C10 CHE B   05      1.000   2.620   0.000  0.00  0.00    +0.125 C 
ATOM     10  N5  CHE B   05      1.000   0.220   8.000  0.00  0.00    -0.325 N 
ATOM     11  C11 CHE B   05      1.000  -1.060   5.000  0.00  0.00    +0.078 A 
ATOM     12  H15 CHE B   05      1.000   0.750   0.000  0.00  0.00    +0.169 HD
ENDROOT
BRANCH  11  13
ATOM     13  C12 CHE B   05      1.000  -2.020   7.000  0.00  0.00    +0.019 A 
ATOM     14  C13 CHE B   05      1.000  -3.150   5.000  0.00  0.00    +0.015 A 
ATOM     15  C14 CHE B   05      1.000  -4.060   5.000  0.00  0.00    +0.049 A 
ATOM     16  C15 CHE B   05      1.000  -3.830   3.000  0.00  0.00    +0.156 A 
ATOM     17  N6  CHE B   05      1.000  -4.510   8.000  0.00  0.00    -0.215 NA
ATOM     18  C16 CHE B   05      1.000  -3.820   8.000  0.00  0.00    +0.246 A 
ATOM     19  N7  CHE B   05      1.000  -2.730   6.000  0.00  0.00    -0.154 NA
ATOM     20  N8  CHE B   05      1.000  -2.710   3.000  0.00  0.00    -0.220 N 
ATOM     21  C17 CHE B   05      1.000  -1.820   0.000  0.00  0.00    +0.124 A 
ENDBRANCH  11  13
BRANCH   1  25
ATOM     22  C1  CHE B   05      1.000  -4.820   3.000  0.00  0.00    +0.068 C 
ATOM     23  C2  CHE B   05      1.000  -4.260   2.000  0.00  0.00    +0.074 A 
ATOM     24  N1  CHE B   05      1.000  -3.110   7.000  0.00  0.00    -0.247 NA
ATOM     25  C3  CHE B   05      1.000  -2.550   5.000  0.00  0.00    +0.092 A 
ATOM     26  C18 CHE B   05      1.000  -3.160   1.000  0.00  0.00    +0.033 A 
ATOM     27  C19 CHE B   05      1.000  -4.350   7.000  0.00  0.00    +0.042 A 
ATOM     28  C20 CHE B   05      1.000  -4.920   1.000  0.00  0.00    +0.144 A 
ATOM     29  F1  CHE B   05      1.000  -6.080   9.000  0.00  0.00    -0.204 F 
ENDBRANCH   1  25
BRANCH   7  30
ATOM     30  S1  CHE B   05      1.000   6.530   8.000  0.00  0.00    +0.029 S 
ATOM     31  O1  CHE B   05      1.000   7.040   6.000  0.00  0.00    -0.158 OA
ATOM     32  O2  CHE B   05      1.000   7.170   5.000  0.00  0.00    -0.158 OA
ATOM     33  C8  CHE B   05      1.000   6.910   0.000  0.00  0.00    +0.215 C 
ENDBRANCH   7  30
TORSDOF 3
