REMARK  Name = dock_mp/CHEMBL4/CHEMBL409158.pdb
REMARK  5 active torsions:
REMARK  status: ('A' for Active; 'I' for Inactive)
REMARK    1  A    between atoms: C3_4  and  C4_5
REMARK    2  A    between atoms: C4_5  and  O2_6
REMARK    3  A    between atoms: O2_6  and  C5_7
REMARK    4  A    between atoms: C9_11  and  C10_12
REMARK    5  A    between atoms: C15_19  and  C16_20
REMARK                            x       y       z     vdW  Elec       q    Type
REMARK                         _______ _______ _______ _____ _____    ______ ____
ROOT
ATOM      1  C5  CHE B   01      1.000   1.960   1.000  0.00  0.00    +0.123 A 
ATOM      2  C6  CHE B   01      1.000   0.880   3.000  0.00  0.00    +0.046 A 
ATOM      3  C7  CHE B   01      1.000  -0.420   4.000  0.00  0.00    +0.014 A 
ATOM      4  C8  CHE B   01      1.000  -0.630   6.000  0.00  0.00    +0.008 A 
ATOM      5  C9  CHE B   01      1.000  -1.920   7.000  0.00  0.00    -0.003 A 
ATOM      6  C21 CHE B   01      1.000  -2.090   7.000  0.00  0.00    +0.029 A 
ATOM      7  C22 CHE B   01      1.000  -1.010   1.000  0.00  0.00    +0.112 A 
ATOM      8  N4  CHE B   01      1.000   0.240   8.000  0.00  0.00    -0.255 NA
ATOM      9  C23 CHE B   01      1.000   0.410   4.000  0.00  0.00    +0.075 A 
ATOM     10  C24 CHE B   01      1.000   1.690   7.000  0.00  0.00    +0.074 A 
ENDROOT
BRANCH   5  11
ATOM     11  C10 CHE B   01      1.000  -3.090   7.000  0.00  0.00    +0.033 A 
ATOM     12  C11 CHE B   01      1.000  -3.930   7.000  0.00  0.00    +0.048 A 
ATOM     13  C12 CHE B   01      1.000  -4.080   2.000  0.00  0.00    +0.057 C 
ATOM     14  C13 CHE B   01      1.000  -5.470   7.000  0.00  0.00    +0.029 C 
ATOM     15  C14 CHE B   01      1.000  -5.820   0.000  0.00  0.00    +0.144 C 
ATOM     16  N1  CHE B   01      1.000  -4.910   1.000  0.00  0.00    -0.267 N 
ATOM     17  N2  CHE B   01      1.000  -4.720   7.000  0.00  0.00    -0.169 NA
ATOM     18  C15 CHE B   01      1.000  -3.620   2.000  0.00  0.00    +0.119 A 
BRANCH  18  19
ATOM     19  C16 CHE B   01      1.000  -3.120   4.000  0.00  0.00    +0.091 A 
ATOM     20  C17 CHE B   01      1.000  -3.070   0.000  0.00  0.00    +0.030 A 
ATOM     21  C18 CHE B   01      1.000  -2.580   2.000  0.00  0.00    +0.004 A 
ATOM     22  C19 CHE B   01      1.000  -2.160   0.000  0.00  0.00    +0.020 A 
ATOM     23  C20 CHE B   01      1.000  -2.230   4.000  0.00  0.00    +0.111 A 
ATOM     24  N3  CHE B   01      1.000  -2.710   5.000  0.00  0.00    -0.253 NA
ENDBRANCH  18  19
ENDBRANCH   5  11
BRANCH   1  25
ATOM     25  O2  CHE B   01      1.000   3.270   3.000  0.00  0.00    -0.489 OA
BRANCH  25  26
ATOM     26  C4  CHE B   01      1.000   4.320   4.000  0.00  0.00    +0.260 C 
BRANCH  26  30
ATOM     27  C1  CHE B   01      1.000   7.200   5.000  0.00  0.00    +0.031 C 
ATOM     28  C2  CHE B   01      1.000   7.010   6.000  0.00  0.00    +0.160 C 
ATOM     29  O1  CHE B   01      1.000   5.800   2.000  0.00  0.00    -0.373 OA
ATOM     30  C3  CHE B   01      1.000   5.680   1.000  0.00  0.00    +0.156 C 
ATOM     31  C25 CHE B   01      1.000   5.960   0.000  0.00  0.00    +0.037 C 
ENDBRANCH  26  30
ENDBRANCH  25  26
ENDBRANCH   1  25
TORSDOF 5
