REMARK  Name = dock_mp/CHEMBL4/CHEMBL480742.pdb
REMARK  3 active torsions:
REMARK  status: ('A' for Active; 'I' for Inactive)
REMARK    1  A    between atoms: C1_1  and  C2_2
REMARK    2  A    between atoms: C3_4  and  C4_5
REMARK    3  A    between atoms: C6_10  and  C7_11
REMARK                            x       y       z     vdW  Elec       q    Type
REMARK                         _______ _______ _______ _____ _____    ______ ____
ROOT
ATOM      1  C4  CHE B   07      1.000  -1.180   7.000  0.00  0.00    +0.117 A 
ATOM      2  N2  CHE B   07      1.000  -1.830   6.000  0.00  0.00    -0.213 NA
ATOM      3  C5  CHE B   07      1.000  -0.940   5.000  0.00  0.00    +0.191 A 
ATOM      4  N3  CHE B   07      1.000  -1.230   6.000  0.00  0.00    -0.329 N 
ATOM      5  N4  CHE B   07      1.000   0.270   4.000  0.00  0.00    -0.326 N 
ATOM      6  C6  CHE B   07      1.000   0.140   9.000  0.00  0.00    +0.077 A 
ATOM      7  H4  CHE B   07      1.000  -2.020   7.000  0.00  0.00    +0.145 HD
ATOM      8  H5  CHE B   07      1.000  -0.660   3.000  0.00  0.00    +0.145 HD
ATOM      9  H6  CHE B   07      1.000   1.200   2.000  0.00  0.00    +0.169 HD
ENDROOT
BRANCH   6  10
ATOM     10  C7  CHE B   07      1.000   1.250   8.000  0.00  0.00    +0.003 A 
ATOM     11  C8  CHE B   07      1.000   2.190   9.000  0.00  0.00    +0.012 A 
ATOM     12  C9  CHE B   07      1.000   3.230   7.000  0.00  0.00    +0.030 A 
ATOM     13  C10 CHE B   07      1.000   3.330   6.000  0.00  0.00    +0.089 A 
ATOM     14  N5  CHE B   07      1.000   4.340   3.000  0.00  0.00    -0.252 NA
ATOM     15  C11 CHE B   07      1.000   4.500   1.000  0.00  0.00    +0.131 A 
ATOM     16  C12 CHE B   07      1.000   3.570   0.000  0.00  0.00    +0.131 A 
ATOM     17  N6  CHE B   07      1.000   2.540   7.000  0.00  0.00    -0.252 NA
ATOM     18  C13 CHE B   07      1.000   2.420   4.000  0.00  0.00    +0.090 A 
ATOM     19  C14 CHE B   07      1.000   1.380   5.000  0.00  0.00    +0.040 A 
ENDBRANCH   6  10
BRANCH   1  23
ATOM     20  C1  CHE B   07      1.000  -4.120   8.000  0.00  0.00    +0.068 C 
ATOM     21  C2  CHE B   07      1.000  -3.230   1.000  0.00  0.00    +0.074 A 
ATOM     22  N1  CHE B   07      1.000  -2.640   4.000  0.00  0.00    -0.247 NA
ATOM     23  C3  CHE B   07      1.000  -1.830   3.000  0.00  0.00    +0.092 A 
ATOM     24  C15 CHE B   07      1.000  -1.600   6.000  0.00  0.00    +0.033 A 
ATOM     25  C16 CHE B   07      1.000  -2.190   1.000  0.00  0.00    +0.042 A 
ATOM     26  C17 CHE B   07      1.000  -3.000   2.000  0.00  0.00    +0.144 A 
ATOM     27  F1  CHE B   07      1.000  -3.570   4.000  0.00  0.00    -0.204 F 
ENDBRANCH   1  23
TORSDOF 2
