REMARK  Name = dock_mp/CHEMBL4/CHEMBL436944.pdb
REMARK  4 active torsions:
REMARK  status: ('A' for Active; 'I' for Inactive)
REMARK    1  A    between atoms: C1_2  and  C6_9
REMARK    2  A    between atoms: C9_12  and  C10_13
REMARK    3  A    between atoms: C12_15  and  C13_16
REMARK    4  A    between atoms: C15_20  and  C16_21
REMARK                            x       y       z     vdW  Elec       q    Type
REMARK                         _______ _______ _______ _____ _____    ______ ____
ROOT
ATOM      1  C10 CHE B   09      1.000   0.860   2.000  0.00  0.00    +0.072 A 
ATOM      2  C11 CHE B   09      1.000   1.770   3.000  0.00  0.00    +0.037 A 
ATOM      3  C12 CHE B   09      1.000   3.030   0.000  0.00  0.00    -0.011 A 
ATOM      4  C21 CHE B   09      1.000   3.360   0.000  0.00  0.00    +0.028 A 
ATOM      5  C22 CHE B   09      1.000   2.450   0.000  0.00  0.00    +0.112 A 
ATOM      6  N5  CHE B   09      1.000   1.240   8.000  0.00  0.00    -0.255 NA
ENDROOT
BRANCH   1  10
ATOM      7  C6  CHE B   09      1.000  -3.040   1.000  0.00  0.00    +0.037 A 
ATOM      8  C7  CHE B   09      1.000  -2.210   0.000  0.00  0.00    +0.014 A 
ATOM      9  C8  CHE B   09      1.000  -0.930   9.000  0.00  0.00    +0.011 A 
ATOM     10  C9  CHE B   09      1.000  -0.460   7.000  0.00  0.00    +0.000 A 
ATOM     11  C23 CHE B   09      1.000  -1.310   8.000  0.00  0.00    +0.011 A 
ATOM     12  C24 CHE B   09      1.000  -2.590   1.000  0.00  0.00    +0.014 A 
BRANCH   7  14
ATOM     13  O1  CHE B   09      1.000  -4.600   1.000  0.00  0.00    -0.270 OA
ATOM     14  C1  CHE B   09      1.000  -4.370   9.000  0.00  0.00    +0.247 C 
ATOM     15  N1  CHE B   09      1.000  -5.500   0.000  0.00  0.00    -0.293 N 
ATOM     16  C2  CHE B   09      1.000  -6.850   0.000  0.00  0.00    +0.136 C 
ATOM     17  C3  CHE B   09      1.000  -7.730   4.000  0.00  0.00    +0.179 C 
ATOM     18  O2  CHE B   09      1.000  -7.510   4.000  0.00  0.00    -0.377 OA
ATOM     19  C4  CHE B   09      1.000  -6.210   7.000  0.00  0.00    +0.179 C 
ATOM     20  C5  CHE B   09      1.000  -5.300   6.000  0.00  0.00    +0.136 C 
ENDBRANCH   7  14
ENDBRANCH   1  10
BRANCH   3  21
ATOM     21  C13 CHE B   09      1.000   4.010   7.000  0.00  0.00    +0.029 A 
ATOM     22  C14 CHE B   09      1.000   3.860   1.000  0.00  0.00    +0.114 A 
ATOM     23  N2  CHE B   09      1.000   4.990   4.000  0.00  0.00    -0.284 N 
ATOM     24  N3  CHE B   09      1.000   5.880   2.000  0.00  0.00    -0.172 NA
ATOM     25  C15 CHE B   09      1.000   5.300   2.000  0.00  0.00    +0.118 A 
ATOM     26  H13 CHE B   09      1.000   5.180   2.000  0.00  0.00    +0.188 HD
BRANCH  25  27
ATOM     27  C16 CHE B   09      1.000   5.870   5.000  0.00  0.00    +0.091 A 
ATOM     28  C17 CHE B   09      1.000   5.360   7.000  0.00  0.00    +0.030 A 
ATOM     29  C18 CHE B   09      1.000   5.950   5.000  0.00  0.00    +0.004 A 
ATOM     30  C19 CHE B   09      1.000   7.060   3.000  0.00  0.00    +0.020 A 
ATOM     31  C20 CHE B   09      1.000   7.580   4.000  0.00  0.00    +0.111 A 
ATOM     32  N4  CHE B   09      1.000   6.960   3.000  0.00  0.00    -0.253 NA
ENDBRANCH  25  27
ENDBRANCH   3  21
TORSDOF 4
