REMARK  Name = dock_mp/CHEMBL4/CHEMBL401570.pdb
REMARK  7 active torsions:
REMARK  status: ('A' for Active; 'I' for Inactive)
REMARK    1  A    between atoms: C1_1  and  C2_2
REMARK    2  A    between atoms: C6_6  and  C7_7
REMARK    3  A    between atoms: C8_9  and  C9_10
REMARK    4  A    between atoms: C9_10  and  C10_11
REMARK    5  A    between atoms: C9_10  and  C11_12
REMARK    6  A    between atoms: C9_10  and  C12_13
REMARK    7  A    between atoms: C13_15  and  C14_16
REMARK                            x       y       z     vdW  Elec       q    Type
REMARK                         _______ _______ _______ _____ _____    ______ ____
ROOT
ATOM      1  C7  CHE B   05      1.000  -1.010   0.000  0.00  0.00    +0.092 A 
ATOM      2  N1  CHE B   05      1.000  -1.520   8.000  0.00  0.00    -0.340 N 
ATOM      3  C8  CHE B   05      1.000  -0.590   2.000  0.00  0.00    +0.114 A 
ATOM      4  N2  CHE B   05      1.000   0.550   7.000  0.00  0.00    -0.231 NA
ATOM      5  C13 CHE B   05      1.000   0.330   0.000  0.00  0.00    +0.098 A 
ATOM      6  H7  CHE B   05      1.000  -2.530   5.000  0.00  0.00    +0.167 HD
ENDROOT
BRANCH   5   7
ATOM      7  C14 CHE B   05      1.000   1.380   6.000  0.00  0.00    +0.005 A 
ATOM      8  C15 CHE B   05      1.000   1.330   2.000  0.00  0.00    +0.012 A 
ATOM      9  C16 CHE B   05      1.000   2.340   9.000  0.00  0.00    +0.030 A 
ATOM     10  C17 CHE B   05      1.000   3.430   6.000  0.00  0.00    +0.089 A 
ATOM     11  N3  CHE B   05      1.000   4.420   4.000  0.00  0.00    -0.252 NA
ATOM     12  C18 CHE B   05      1.000   5.460   2.000  0.00  0.00    +0.131 A 
ATOM     13  C19 CHE B   05      1.000   5.510   1.000  0.00  0.00    +0.131 A 
ATOM     14  N4  CHE B   05      1.000   4.510   3.000  0.00  0.00    -0.252 NA
ATOM     15  C20 CHE B   05      1.000   3.480   1.000  0.00  0.00    +0.090 A 
ATOM     16  C21 CHE B   05      1.000   2.480   6.000  0.00  0.00    +0.040 A 
ENDBRANCH   5   7
BRANCH   1  22
ATOM     17  C1  CHE B   05      1.000  -4.300   2.000  0.00  0.00    +0.065 C 
ATOM     18  C2  CHE B   05      1.000  -3.280   2.000  0.00  0.00    +0.039 A 
ATOM     19  C3  CHE B   05      1.000  -2.980   3.000  0.00  0.00    +0.023 A 
ATOM     20  C4  CHE B   05      1.000  -2.000   1.000  0.00  0.00    +0.004 A 
ATOM     21  C5  CHE B   05      1.000  -1.320   8.000  0.00  0.00    +0.030 A 
ATOM     22  C6  CHE B   05      1.000  -1.650   1.000  0.00  0.00    +0.090 A 
ATOM     23  N5  CHE B   05      1.000  -2.600   9.000  0.00  0.00    -0.250 NA
ENDBRANCH   1  22
BRANCH   3  24
ATOM     24  C9  CHE B   05      1.000  -0.700   2.000  0.00  0.00    +0.020 C 
ATOM     25  C10 CHE B   05      1.000   0.640   0.000  0.00  0.00    +0.018 C 
ATOM     26  C11 CHE B   05      1.000  -1.680   1.000  0.00  0.00    +0.018 C 
ATOM     27  C12 CHE B   05      1.000  -1.150   9.000  0.00  0.00    +0.018 C 
ENDBRANCH   3  24
TORSDOF 3
