MODEL 1
REMARK VINA RESULT:      -7.2      0.000      0.000
REMARK  Name = dock_mp/CHEMBL4/CHEMBL480583.pdb
REMARK  5 active torsions:
REMARK  status: ('A' for Active; 'I' for Inactive)
REMARK    1  A    between atoms: C1_1  and  C2_2
REMARK    2  A    between atoms: C3_4  and  C4_5
REMARK    3  A    between atoms: N4_11  and  S1_12
REMARK    4  A    between atoms: S1_12  and  C8_15
REMARK    5  A    between atoms: C11_19  and  C12_20
REMARK                            x       y       z     vdW  Elec       q    Type
REMARK                         _______ _______ _______ _____ _____    ______ ____
ROOT
ATOM      1  C4  CHE B   05     22.507  69.180  10.125  0.00  0.00    +0.117 A 
ATOM      2  N2  CHE B   05     23.624  65.950  12.499  0.00  0.00    -0.212 NA
ATOM      3  C5  CHE B   05     24.310  65.498  12.023  0.00  0.00    +0.197 A 
ATOM      4  N3  CHE B   05     25.221  65.522  10.602  0.00  0.00    -0.299 N 
ATOM      5  C6  CHE B   05     25.721  66.441   8.679  0.00  0.00    +0.125 C 
ATOM      6  C7  CHE B   05     26.619  67.098   6.480  0.00  0.00    +0.128 C 
ATOM      7  N4  CHE B   05     27.000  65.600   7.790  0.00  0.00    -0.178 NA
ATOM      8  C9  CHE B   05     26.444  65.966   8.177  0.00  0.00    +0.128 C 
ATOM      9  C10 CHE B   05     25.839  62.620  13.323  0.00  0.00    +0.125 C 
ATOM     10  N5  CHE B   05     23.534  69.128   8.623  0.00  0.00    -0.325 N 
ATOM     11  C11 CHE B   05     22.823  67.724  11.480  0.00  0.00    +0.078 A 
ATOM     12  H15 CHE B   05     24.488  63.509  14.262  0.00  0.00    +0.169 HD
ENDROOT
BRANCH  11  13
ATOM     13  C12 CHE B   05     21.987  69.523  10.486  0.00  0.00    +0.019 A 
ATOM     14  C13 CHE B   05     23.789  69.527  11.911  0.00  0.00    +0.015 A 
ATOM     15  C14 CHE B   05     24.209  70.312  12.099  0.00  0.00    +0.049 A 
ATOM     16  C15 CHE B   05     25.383  69.143  13.243  0.00  0.00    +0.156 A 
ATOM     17  N6  CHE B   05     22.498  72.156  10.403  0.00  0.00    -0.215 NA
ATOM     18  C16 CHE B   05     22.179  71.560  10.261  0.00  0.00    +0.246 A 
ATOM     19  N7  CHE B   05     22.955  69.650  11.228  0.00  0.00    -0.154 NA
ATOM     20  N8  CHE B   05     24.865  68.177  13.012  0.00  0.00    -0.220 N 
ATOM     21  C17 CHE B   05     26.374  65.954  14.617  0.00  0.00    +0.124 A 
ENDBRANCH  11  13
BRANCH   1  25
ATOM     22  C1  CHE B   05     20.043  67.321  14.468  0.00  0.00    +0.068 C 
ATOM     23  C2  CHE B   05     20.759  67.370  15.362  0.00  0.00    +0.074 A 
ATOM     24  N1  CHE B   05     20.834  68.535  10.366  0.00  0.00    -0.247 NA
ATOM     25  C3  CHE B   05     21.747  68.433  12.228  0.00  0.00    +0.092 A 
ATOM     26  C18 CHE B   05     21.974  67.611  16.184  0.00  0.00    +0.033 A 
ATOM     27  C19 CHE B   05     19.687  68.093  10.531  0.00  0.00    +0.042 A 
ATOM     28  C20 CHE B   05     20.347  66.984  16.418  0.00  0.00    +0.144 A 
ATOM     29  F1  CHE B   05     17.691  67.779   8.825  0.00  0.00    -0.204 F 
ENDBRANCH   1  25
BRANCH   7  30
ATOM     30  S1  CHE B   05     28.093  66.128   5.456  0.00  0.00    +0.029 S 
ATOM     31  O1  CHE B   05     27.659  64.239   6.165  0.00  0.00    -0.158 OA
ATOM     32  O2  CHE B   05     27.406  63.371   6.611  0.00  0.00    -0.158 OA
ATOM     33  C8  CHE B   05     25.867  59.588   9.507  0.00  0.00    +0.215 C 
ENDBRANCH   7  30
TORSDOF 3
ENDMDL
MODEL 2
REMARK VINA RESULT:      -6.6      5.150      7.279
REMARK  Name = dock_mp/CHEMBL4/CHEMBL480583.pdb
REMARK  5 active torsions:
REMARK  status: ('A' for Active; 'I' for Inactive)
REMARK    1  A    between atoms: C1_1  and  C2_2
REMARK    2  A    between atoms: C3_4  and  C4_5
REMARK    3  A    between atoms: N4_11  and  S1_12
REMARK    4  A    between atoms: S1_12  and  C8_15
REMARK    5  A    between atoms: C11_19  and  C12_20
REMARK                            x       y       z     vdW  Elec       q    Type
REMARK                         _______ _______ _______ _____ _____    ______ ____
ROOT
ATOM      1  C4  CHE B   05     21.239  67.814  16.189  0.00  0.00    +0.117 A 
ATOM      2  N2  CHE B   05     24.009  66.256  13.501  0.00  0.00    -0.212 NA
ATOM      3  C5  CHE B   05     24.037  65.320  13.667  0.00  0.00    +0.197 A 
ATOM      4  N3  CHE B   05     23.394  64.088  14.625  0.00  0.00    -0.299 N 
ATOM      5  C6  CHE B   05     22.053  63.426  16.223  0.00  0.00    +0.125 C 
ATOM      6  C7  CHE B   05     20.729  62.222  17.917  0.00  0.00    +0.128 C 
ATOM      7  N4  CHE B   05     22.106  61.683  16.531  0.00  0.00    -0.178 NA
ATOM      8  C9  CHE B   05     22.083  62.441  16.397  0.00  0.00    +0.128 C 
ATOM      9  C10 CHE B   05     26.143  63.209  11.817  0.00  0.00    +0.125 C 
ATOM     10  N5  CHE B   05     20.601  66.425  17.175  0.00  0.00    -0.325 N 
ATOM     11  C11 CHE B   05     22.614  67.365  14.787  0.00  0.00    +0.078 A 
ATOM     12  H15 CHE B   05     26.087  65.050  11.492  0.00  0.00    +0.169 HD
ENDROOT
BRANCH  11  13
ATOM     13  C12 CHE B   05     21.217  68.523  16.064  0.00  0.00    +0.019 A 
ATOM     14  C13 CHE B   05     23.402  68.051  16.597  0.00  0.00    +0.015 A 
ATOM     15  C14 CHE B   05     23.745  68.350  17.385  0.00  0.00    +0.049 A 
ATOM     16  C15 CHE B   05     25.416  67.432  16.740  0.00  0.00    +0.156 A 
ATOM     17  N6  CHE B   05     21.277  69.762  18.443  0.00  0.00    -0.215 NA
ATOM     18  C16 CHE B   05     21.017  69.536  17.845  0.00  0.00    +0.246 A 
ATOM     19  N7  CHE B   05     22.364  68.335  16.456  0.00  0.00    -0.154 NA
ATOM     20  N8  CHE B   05     24.994  67.064  15.770  0.00  0.00    -0.220 N 
ATOM     21  C17 CHE B   05     27.296  65.507  14.332  0.00  0.00    +0.124 A 
ENDBRANCH  11  13
BRANCH   1  25
ATOM     22  C1  CHE B   05     23.503  70.190  11.992  0.00  0.00    +0.068 C 
ATOM     23  C2  CHE B   05     24.629  70.302  12.178  0.00  0.00    +0.074 A 
ATOM     24  N1  CHE B   05     20.536  68.421  14.635  0.00  0.00    -0.247 NA
ATOM     25  C3  CHE B   05     22.569  68.831  14.528  0.00  0.00    +0.092 A 
ATOM     26  C18 CHE B   05     25.964  70.232  12.828  0.00  0.00    +0.033 A 
ATOM     27  C19 CHE B   05     20.054  68.837  13.571  0.00  0.00    +0.042 A 
ATOM     28  C20 CHE B   05     25.280  70.822  11.318  0.00  0.00    +0.144 A 
ATOM     29  F1  CHE B   05     17.567  68.819  12.674  0.00  0.00    -0.204 F 
ENDBRANCH   1  25
BRANCH   7  30
ATOM     30  S1  CHE B   05     20.790  60.214  18.272  0.00  0.00    +0.029 S 
ATOM     31  O1  CHE B   05     22.019  59.480  16.784  0.00  0.00    -0.158 OA
ATOM     32  O2  CHE B   05     22.638  59.237  16.027  0.00  0.00    -0.158 OA
ATOM     33  C8  CHE B   05     25.771  58.926  12.134  0.00  0.00    +0.215 C 
ENDBRANCH   7  30
TORSDOF 3
ENDMDL
MODEL 3
REMARK VINA RESULT:      -6.4      4.577      6.720
REMARK  Name = dock_mp/CHEMBL4/CHEMBL480583.pdb
REMARK  5 active torsions:
REMARK  status: ('A' for Active; 'I' for Inactive)
REMARK    1  A    between atoms: C1_1  and  C2_2
REMARK    2  A    between atoms: C3_4  and  C4_5
REMARK    3  A    between atoms: N4_11  and  S1_12
REMARK    4  A    between atoms: S1_12  and  C8_15
REMARK    5  A    between atoms: C11_19  and  C12_20
REMARK                            x       y       z     vdW  Elec       q    Type
REMARK                         _______ _______ _______ _____ _____    ______ ____
ROOT
ATOM      1  C4  CHE B   05     25.506  68.644   8.669  0.00  0.00    +0.117 A 
ATOM      2  N2  CHE B   05     24.294  66.793  12.194  0.00  0.00    -0.212 NA
ATOM      3  C5  CHE B   05     23.344  66.814  12.188  0.00  0.00    +0.197 A 
ATOM      4  N3  CHE B   05     22.000  67.313  11.297  0.00  0.00    -0.299 N 
ATOM      5  C6  CHE B   05     21.142  68.271   9.526  0.00  0.00    +0.125 C 
ATOM      6  C7  CHE B   05     19.734  69.241   7.751  0.00  0.00    +0.128 C 
ATOM      7  N4  CHE B   05     19.372  68.310   9.515  0.00  0.00    -0.178 NA
ATOM      8  C9  CHE B   05     20.142  68.293   9.520  0.00  0.00    +0.128 C 
ATOM      9  C10 CHE B   05     21.478  65.447  14.827  0.00  0.00    +0.125 C 
ATOM     10  N5  CHE B   05     24.002  69.146   7.777  0.00  0.00    -0.325 N 
ATOM     11  C11 CHE B   05     25.235  67.711  10.433  0.00  0.00    +0.078 A 
ATOM     12  H15 CHE B   05     23.348  65.406  14.838  0.00  0.00    +0.169 HD
ENDROOT
BRANCH  11  13
ATOM     13  C12 CHE B   05     26.226  68.628   8.673  0.00  0.00    +0.019 A 
ATOM     14  C13 CHE B   05     25.652  69.753  10.592  0.00  0.00    +0.015 A 
ATOM     15  C14 CHE B   05     25.834  70.642  10.661  0.00  0.00    +0.049 A 
ATOM     16  C15 CHE B   05     24.989  70.438  12.477  0.00  0.00    +0.156 A 
ATOM     17  N6  CHE B   05     27.123  71.050   7.945  0.00  0.00    -0.215 NA
ATOM     18  C16 CHE B   05     26.985  70.376   7.893  0.00  0.00    +0.246 A 
ATOM     19  N7  CHE B   05     25.968  69.332   9.643  0.00  0.00    -0.154 NA
ATOM     20  N8  CHE B   05     24.765  69.344  12.392  0.00  0.00    -0.220 N 
ATOM     21  C17 CHE B   05     23.389  68.506  15.074  0.00  0.00    +0.124 A 
ENDBRANCH  11  13
BRANCH   1  25
ATOM     22  C1  CHE B   05     28.337  65.773  12.153  0.00  0.00    +0.068 C 
ATOM     23  C2  CHE B   05     28.489  66.381  13.112  0.00  0.00    +0.074 A 
ATOM     24  N1  CHE B   05     26.205  66.978   8.557  0.00  0.00    -0.247 NA
ATOM     25  C3  CHE B   05     26.725  67.678  10.442  0.00  0.00    +0.092 A 
ATOM     26  C18 CHE B   05     28.432  67.486  14.106  0.00  0.00    +0.033 A 
ATOM     27  C19 CHE B   05     26.684  65.837   8.480  0.00  0.00    +0.042 A 
ATOM     28  C20 CHE B   05     29.112  65.866  13.997  0.00  0.00    +0.144 A 
ATOM     29  F1  CHE B   05     26.617  64.060   6.523  0.00  0.00    -0.204 F 
ENDBRANCH   1  25
BRANCH   7  30
ATOM     30  S1  CHE B   05     17.694  69.286   7.739  0.00  0.00    +0.029 S 
ATOM     31  O1  CHE B   05     17.192  68.704   9.655  0.00  0.00    -0.158 OA
ATOM     32  O2  CHE B   05     17.064  68.390  10.605  0.00  0.00    -0.158 OA
ATOM     33  C8  CHE B   05     17.316  66.663  15.297  0.00  0.00    +0.215 C 
ENDBRANCH   7  30
TORSDOF 3
ENDMDL
MODEL 4
REMARK VINA RESULT:      -6.3      3.531      6.350
REMARK  Name = dock_mp/CHEMBL4/CHEMBL480583.pdb
REMARK  5 active torsions:
REMARK  status: ('A' for Active; 'I' for Inactive)
REMARK    1  A    between atoms: C1_1  and  C2_2
REMARK    2  A    between atoms: C3_4  and  C4_5
REMARK    3  A    between atoms: N4_11  and  S1_12
REMARK    4  A    between atoms: S1_12  and  C8_15
REMARK    5  A    between atoms: C11_19  and  C12_20
REMARK                            x       y       z     vdW  Elec       q    Type
REMARK                         _______ _______ _______ _____ _____    ______ ____
ROOT
ATOM      1  C4  CHE B   05     23.004  69.145   9.483  0.00  0.00    +0.117 A 
ATOM      2  N2  CHE B   05     25.920  67.204   7.234  0.00  0.00    -0.212 NA
ATOM      3  C5  CHE B   05     26.244  66.497   7.780  0.00  0.00    +0.197 A 
ATOM      4  N3  CHE B   05     26.078  65.756   9.287  0.00  0.00    -0.299 N 
ATOM      5  C6  CHE B   05     25.121  65.636  11.252  0.00  0.00    +0.125 C 
ATOM      6  C7  CHE B   05     24.351  65.107  13.533  0.00  0.00    +0.128 C 
ATOM      7  N4  CHE B   05     25.725  64.319  12.268  0.00  0.00    -0.178 NA
ATOM      8  C9  CHE B   05     25.462  64.892  11.826  0.00  0.00    +0.128 C 
ATOM      9  C10 CHE B   05     28.758  64.329   6.643  0.00  0.00    +0.125 C 
ATOM     10  N5  CHE B   05     22.893  68.285  11.082  0.00  0.00    -0.325 N 
ATOM     11  C11 CHE B   05     24.348  68.424   8.166  0.00  0.00    +0.078 A 
ATOM     12  H15 CHE B   05     28.119  65.721   5.570  0.00  0.00    +0.169 HD
ENDROOT
BRANCH  11  13
ATOM     13  C12 CHE B   05     22.758  69.681   9.070  0.00  0.00    +0.019 A 
ATOM     14  C13 CHE B   05     25.014  70.031   9.325  0.00  0.00    +0.015 A 
ATOM     15  C14 CHE B   05     25.304  70.730   9.830  0.00  0.00    +0.049 A 
ATOM     16  C15 CHE B   05     27.127  70.034   9.331  0.00  0.00    +0.156 A 
ATOM     17  N6  CHE B   05     22.605  71.854  10.636  0.00  0.00    -0.215 NA
ATOM     18  C16 CHE B   05     22.385  71.324  10.253  0.00  0.00    +0.246 A 
ATOM     19  N7  CHE B   05     23.932  69.967   9.278  0.00  0.00    -0.154 NA
ATOM     20  N8  CHE B   05     26.769  69.173   8.710  0.00  0.00    -0.220 N 
ATOM     21  C17 CHE B   05     29.329  67.711   7.661  0.00  0.00    +0.124 A 
ENDBRANCH  11  13
BRANCH   1  25
ATOM     22  C1  CHE B   05     24.095  69.797   4.308  0.00  0.00    +0.068 C 
ATOM     23  C2  CHE B   05     25.184  70.135   4.188  0.00  0.00    +0.074 A 
ATOM     24  N1  CHE B   05     21.979  68.925   8.007  0.00  0.00    -0.247 NA
ATOM     25  C3  CHE B   05     23.839  69.533   7.311  0.00  0.00    +0.092 A 
ATOM     26  C18 CHE B   05     26.578  70.539   4.509  0.00  0.00    +0.033 A 
ATOM     27  C19 CHE B   05     21.276  68.774   6.997  0.00  0.00    +0.042 A 
ATOM     28  C20 CHE B   05     25.581  70.325   3.074  0.00  0.00    +0.144 A 
ATOM     29  F1  CHE B   05     18.754  68.024   6.739  0.00  0.00    -0.204 F 
ENDBRANCH   1  25
BRANCH   7  30
ATOM     30  S1  CHE B   05     25.048  63.589  14.703  0.00  0.00    +0.029 S 
ATOM     31  O1  CHE B   05     25.855  62.342  13.270  0.00  0.00    -0.158 OA
ATOM     32  O2  CHE B   05     26.251  61.830  12.497  0.00  0.00    -0.158 OA
ATOM     33  C8  CHE B   05     28.179  60.081   8.220  0.00  0.00    +0.215 C 
ENDBRANCH   7  30
TORSDOF 3
ENDMDL
MODEL 5
REMARK VINA RESULT:      -6.3      5.751      9.033
REMARK  Name = dock_mp/CHEMBL4/CHEMBL480583.pdb
REMARK  5 active torsions:
REMARK  status: ('A' for Active; 'I' for Inactive)
REMARK    1  A    between atoms: C1_1  and  C2_2
REMARK    2  A    between atoms: C3_4  and  C4_5
REMARK    3  A    between atoms: N4_11  and  S1_12
REMARK    4  A    between atoms: S1_12  and  C8_15
REMARK    5  A    between atoms: C11_19  and  C12_20
REMARK                            x       y       z     vdW  Elec       q    Type
REMARK                         _______ _______ _______ _____ _____    ______ ____
ROOT
ATOM      1  C4  CHE B   05     26.234  69.232  15.877  0.00  0.00    +0.117 A 
ATOM      2  N2  CHE B   05     24.280  69.866  12.258  0.00  0.00    -0.212 NA
ATOM      3  C5  CHE B   05     23.385  69.574  12.387  0.00  0.00    +0.197 A 
ATOM      4  N3  CHE B   05     22.322  68.909  13.518  0.00  0.00    -0.299 N 
ATOM      5  C6  CHE B   05     21.920  68.141  15.528  0.00  0.00    +0.125 C 
ATOM      6  C7  CHE B   05     20.999  67.204  17.613  0.00  0.00    +0.128 C 
ATOM      7  N4  CHE B   05     20.253  67.597  15.770  0.00  0.00    -0.178 NA
ATOM      8  C9  CHE B   05     20.978  67.834  15.665  0.00  0.00    +0.128 C 
ATOM      9  C10 CHE B   05     21.018  69.755   9.804  0.00  0.00    +0.125 C 
ATOM     10  N5  CHE B   05     25.020  68.518  17.030  0.00  0.00    -0.325 N 
ATOM     11  C11 CHE B   05     25.572  69.652  14.022  0.00  0.00    +0.078 A 
ATOM     12  H15 CHE B   05     22.779  70.330   9.548  0.00  0.00    +0.169 HD
ENDROOT
BRANCH  11  13
ATOM     13  C12 CHE B   05     26.912  69.453  15.779  0.00  0.00    +0.019 A 
ATOM     14  C13 CHE B   05     26.566  67.822  14.199  0.00  0.00    +0.015 A 
ATOM     15  C14 CHE B   05     26.999  67.025  14.276  0.00  0.00    +0.049 A 
ATOM     16  C15 CHE B   05     26.006  66.585  12.581  0.00  0.00    +0.156 A 
ATOM     17  N6  CHE B   05     28.537  67.594  16.828  0.00  0.00    -0.215 NA
ATOM     18  C16 CHE B   05     28.209  68.198  16.770  0.00  0.00    +0.246 A 
ATOM     19  N7  CHE B   05     26.808  68.511  15.001  0.00  0.00    -0.154 NA
ATOM     20  N8  CHE B   05     25.474  67.565  12.486  0.00  0.00    -0.220 N 
ATOM     21  C17 CHE B   05     23.726  67.382   9.897  0.00  0.00    +0.124 A 
ENDBRANCH  11  13
BRANCH   1  25
ATOM     22  C1  CHE B   05     27.955  71.974  11.646  0.00  0.00    +0.068 C 
ATOM     23  C2  CHE B   05     28.049  71.268  10.747  0.00  0.00    +0.074 A 
ATOM     24  N1  CHE B   05     26.657  70.980  15.677  0.00  0.00    -0.247 NA
ATOM     25  C3  CHE B   05     26.975  70.110  13.818  0.00  0.00    +0.092 A 
ATOM     26  C18 CHE B   05     28.017  70.041   9.909  0.00  0.00    +0.033 A 
ATOM     27  C19 CHE B   05     26.946  72.178  15.539  0.00  0.00    +0.042 A 
ATOM     28  C20 CHE B   05     28.428  71.741   9.714  0.00  0.00    +0.144 A 
ATOM     29  F1  CHE B   05     26.901  74.178  17.268  0.00  0.00    -0.204 F 
ENDBRANCH   1  25
BRANCH   7  30
ATOM     30  S1  CHE B   05     19.078  66.577  17.892  0.00  0.00    +0.029 S 
ATOM     31  O1  CHE B   05     18.176  66.869  16.059  0.00  0.00    -0.158 OA
ATOM     32  O2  CHE B   05     17.841  67.056  15.126  0.00  0.00    -0.158 OA
ATOM     33  C8  CHE B   05     17.022  68.288  10.343  0.00  0.00    +0.215 C 
ENDBRANCH   7  30
TORSDOF 3
ENDMDL
MODEL 6
REMARK VINA RESULT:      -6.3      4.498      7.229
REMARK  Name = dock_mp/CHEMBL4/CHEMBL480583.pdb
REMARK  5 active torsions:
REMARK  status: ('A' for Active; 'I' for Inactive)
REMARK    1  A    between atoms: C1_1  and  C2_2
REMARK    2  A    between atoms: C3_4  and  C4_5
REMARK    3  A    between atoms: N4_11  and  S1_12
REMARK    4  A    between atoms: S1_12  and  C8_15
REMARK    5  A    between atoms: C11_19  and  C12_20
REMARK                            x       y       z     vdW  Elec       q    Type
REMARK                         _______ _______ _______ _____ _____    ______ ____
ROOT
ATOM      1  C4  CHE B   05     24.121  67.544  12.768  0.00  0.00    +0.117 A 
ATOM      2  N2  CHE B   05     26.353  67.924   9.275  0.00  0.00    -0.212 NA
ATOM      3  C5  CHE B   05     25.729  68.114   8.585  0.00  0.00    +0.197 A 
ATOM      4  N3  CHE B   05     24.089  68.348   8.260  0.00  0.00    -0.299 N 
ATOM      5  C6  CHE B   05     22.011  68.451   8.941  0.00  0.00    +0.125 C 
ATOM      6  C7  CHE B   05     19.572  68.664   9.222  0.00  0.00    +0.128 C 
ATOM      7  N4  CHE B   05     20.849  68.805   7.653  0.00  0.00    -0.178 NA
ATOM      8  C9  CHE B   05     21.355  68.651   8.213  0.00  0.00    +0.128 C 
ATOM      9  C10 CHE B   05     26.774  68.591   5.269  0.00  0.00    +0.125 C 
ATOM     10  N5  CHE B   05     22.376  67.810  12.327  0.00  0.00    -0.325 N 
ATOM     11  C11 CHE B   05     25.457  67.667  11.265  0.00  0.00    +0.078 A 
ATOM     12  H15 CHE B   05     28.002  68.217   6.629  0.00  0.00    +0.169 HD
ENDROOT
BRANCH  11  13
ATOM     13  C12 CHE B   05     24.594  67.400  13.291  0.00  0.00    +0.019 A 
ATOM     14  C13 CHE B   05     25.257  69.410  12.400  0.00  0.00    +0.015 A 
ATOM     15  C14 CHE B   05     25.170  70.169  12.895  0.00  0.00    +0.049 A 
ATOM     16  C15 CHE B   05     25.964  71.046  11.265  0.00  0.00    +0.156 A 
ATOM     17  N6  CHE B   05     23.970  68.943  15.396  0.00  0.00    -0.215 NA
ATOM     18  C16 CHE B   05     24.036  68.367  15.021  0.00  0.00    +0.246 A 
ATOM     19  N7  CHE B   05     24.912  68.526  12.925  0.00  0.00    -0.154 NA
ATOM     20  N8  CHE B   05     26.071  70.111  10.657  0.00  0.00    -0.220 N 
ATOM     21  C17 CHE B   05     27.313  70.971   7.916  0.00  0.00    +0.124 A 
ENDBRANCH  11  13
BRANCH   1  25
ATOM     22  C1  CHE B   05     29.249  66.309  12.014  0.00  0.00    +0.068 C 
ATOM     23  C2  CHE B   05     29.826  67.250  11.706  0.00  0.00    +0.074 A 
ATOM     24  N1  CHE B   05     25.007  65.973  12.918  0.00  0.00    -0.247 NA
ATOM     25  C3  CHE B   05     26.435  67.369  12.349  0.00  0.00    +0.092 A 
ATOM     26  C18 CHE B   05     30.139  68.660  11.354  0.00  0.00    +0.033 A 
ATOM     27  C19 CHE B   05     25.614  64.896  13.021  0.00  0.00    +0.042 A 
ATOM     28  C20 CHE B   05     31.000  67.132  11.500  0.00  0.00    +0.144 A 
ATOM     29  F1  CHE B   05     24.759  62.484  13.688  0.00  0.00    -0.204 F 
ENDBRANCH   1  25
BRANCH   7  30
ATOM     30  S1  CHE B   05     18.232  69.072   7.738  0.00  0.00    +0.029 S 
ATOM     31  O1  CHE B   05     19.470  69.932   6.328  0.00  0.00    -0.158 OA
ATOM     32  O2  CHE B   05     20.166  70.298   5.697  0.00  0.00    -0.158 OA
ATOM     33  C8  CHE B   05     24.214  71.670   3.088  0.00  0.00    +0.215 C 
ENDBRANCH   7  30
TORSDOF 3
ENDMDL
MODEL 7
REMARK VINA RESULT:      -6.3      5.231      8.316
REMARK  Name = dock_mp/CHEMBL4/CHEMBL480583.pdb
REMARK  5 active torsions:
REMARK  status: ('A' for Active; 'I' for Inactive)
REMARK    1  A    between atoms: C1_1  and  C2_2
REMARK    2  A    between atoms: C3_4  and  C4_5
REMARK    3  A    between atoms: N4_11  and  S1_12
REMARK    4  A    between atoms: S1_12  and  C8_15
REMARK    5  A    between atoms: C11_19  and  C12_20
REMARK                            x       y       z     vdW  Elec       q    Type
REMARK                         _______ _______ _______ _____ _____    ______ ____
ROOT
ATOM      1  C4  CHE B   05     26.142  68.023  13.457  0.00  0.00    +0.117 A 
ATOM      2  N2  CHE B   05     23.604  67.656  10.179  0.00  0.00    -0.212 NA
ATOM      3  C5  CHE B   05     22.739  67.490  10.535  0.00  0.00    +0.197 A 
ATOM      4  N3  CHE B   05     21.873  67.295  11.970  0.00  0.00    -0.299 N 
ATOM      5  C6  CHE B   05     21.807  67.222  14.157  0.00  0.00    +0.125 C 
ATOM      6  C7  CHE B   05     21.241  67.054  16.550  0.00  0.00    +0.128 C 
ATOM      7  N4  CHE B   05     20.195  66.913  14.819  0.00  0.00    -0.178 NA
ATOM      8  C9  CHE B   05     20.896  67.048  14.531  0.00  0.00    +0.128 C 
ATOM      9  C10 CHE B   05     19.963  67.048   8.434  0.00  0.00    +0.125 C 
ATOM     10  N5  CHE B   05     25.130  67.799  14.953  0.00  0.00    -0.325 N 
ATOM     11  C11 CHE B   05     25.178  67.898  11.693  0.00  0.00    +0.078 A 
ATOM     12  H15 CHE B   05     21.666  67.375   7.735  0.00  0.00    +0.169 HD
ENDROOT
BRANCH  11  13
ATOM     13  C12 CHE B   05     26.798  68.149  13.188  0.00  0.00    +0.019 A 
ATOM     14  C13 CHE B   05     25.434  69.836  12.433  0.00  0.00    +0.015 A 
ATOM     15  C14 CHE B   05     25.545  70.680  12.756  0.00  0.00    +0.049 A 
ATOM     16  C15 CHE B   05     24.015  71.106  11.519  0.00  0.00    +0.156 A 
ATOM     17  N6  CHE B   05     27.854  70.138  14.648  0.00  0.00    -0.215 NA
ATOM     18  C16 CHE B   05     27.769  69.498  14.403  0.00  0.00    +0.246 A 
ATOM     19  N7  CHE B   05     26.134  69.127  12.862  0.00  0.00    -0.154 NA
ATOM     20  N8  CHE B   05     23.878  70.067  11.122  0.00  0.00    -0.220 N 
ATOM     21  C17 CHE B   05     21.515  70.201   9.075  0.00  0.00    +0.124 A 
ENDBRANCH  11  13
BRANCH   1  25
ATOM     22  C1  CHE B   05     27.336  67.520   8.289  0.00  0.00    +0.068 C 
ATOM     23  C2  CHE B   05     27.059  68.486   7.738  0.00  0.00    +0.074 A 
ATOM     24  N1  CHE B   05     26.865  66.650  12.525  0.00  0.00    -0.247 NA
ATOM     25  C3  CHE B   05     26.535  68.158  11.136  0.00  0.00    +0.092 A 
ATOM     26  C18 CHE B   05     26.567  69.862   7.466  0.00  0.00    +0.033 A 
ATOM     27  C19 CHE B   05     27.360  65.709  11.887  0.00  0.00    +0.042 A 
ATOM     28  C20 CHE B   05     27.270  68.527   6.560  0.00  0.00    +0.144 A 
ATOM     29  F1  CHE B   05     28.156  63.314  12.673  0.00  0.00    -0.204 F 
ENDBRANCH   1  25
BRANCH   7  30
ATOM     30  S1  CHE B   05     19.383  66.698  17.313  0.00  0.00    +0.029 S 
ATOM     31  O1  CHE B   05     18.167  66.559  15.650  0.00  0.00    -0.158 OA
ATOM     32  O2  CHE B   05     17.674  66.510  14.772  0.00  0.00    -0.158 OA
ATOM     33  C8  CHE B   05     16.037  66.409  10.042  0.00  0.00    +0.215 C 
ENDBRANCH   7  30
TORSDOF 3
ENDMDL
MODEL 8
REMARK VINA RESULT:      -6.3      4.768      7.495
REMARK  Name = dock_mp/CHEMBL4/CHEMBL480583.pdb
REMARK  5 active torsions:
REMARK  status: ('A' for Active; 'I' for Inactive)
REMARK    1  A    between atoms: C1_1  and  C2_2
REMARK    2  A    between atoms: C3_4  and  C4_5
REMARK    3  A    between atoms: N4_11  and  S1_12
REMARK    4  A    between atoms: S1_12  and  C8_15
REMARK    5  A    between atoms: C11_19  and  C12_20
REMARK                            x       y       z     vdW  Elec       q    Type
REMARK                         _______ _______ _______ _____ _____    ______ ____
ROOT
ATOM      1  C4  CHE B   05     26.729  69.484   7.071  0.00  0.00    +0.117 A 
ATOM      2  N2  CHE B   05     24.944  69.062  10.807  0.00  0.00    -0.212 NA
ATOM      3  C5  CHE B   05     24.008  69.027  10.648  0.00  0.00    +0.197 A 
ATOM      4  N3  CHE B   05     22.831  69.073   9.439  0.00  0.00    -0.299 N 
ATOM      5  C6  CHE B   05     22.280  69.231   7.326  0.00  0.00    +0.125 C 
ATOM      6  C7  CHE B   05     21.188  69.368   5.121  0.00  0.00    +0.128 C 
ATOM      7  N4  CHE B   05     20.536  69.166   7.030  0.00  0.00    -0.178 NA
ATOM      8  C9  CHE B   05     21.295  69.194   7.159  0.00  0.00    +0.128 C 
ATOM      9  C10 CHE B   05     21.725  68.676  13.290  0.00  0.00    +0.125 C 
ATOM     10  N5  CHE B   05     25.395  69.524   5.835  0.00  0.00    -0.325 N 
ATOM     11  C11 CHE B   05     26.166  69.285   8.995  0.00  0.00    +0.078 A 
ATOM     12  H15 CHE B   05     23.568  68.744  13.602  0.00  0.00    +0.169 HD
ENDROOT
BRANCH  11  13
ATOM     13  C12 CHE B   05     27.438  69.510   7.191  0.00  0.00    +0.019 A 
ATOM     14  C13 CHE B   05     26.781  67.503   8.093  0.00  0.00    +0.015 A 
ATOM     15  C14 CHE B   05     27.048  66.727   7.700  0.00  0.00    +0.049 A 
ATOM     16  C15 CHE B   05     25.990  65.879   9.189  0.00  0.00    +0.156 A 
ATOM     17  N6  CHE B   05     28.665  67.909   5.422  0.00  0.00    -0.215 NA
ATOM     18  C16 CHE B   05     28.462  68.497   5.720  0.00  0.00    +0.246 A 
ATOM     19  N7  CHE B   05     27.152  68.383   7.579  0.00  0.00    -0.154 NA
ATOM     20  N8  CHE B   05     25.661  66.834   9.672  0.00  0.00    -0.220 N 
ATOM     21  C17 CHE B   05     23.915  66.027  12.140  0.00  0.00    +0.124 A 
ENDBRANCH  11  13
BRANCH   1  25
ATOM     22  C1  CHE B   05     28.898  70.013  11.909  0.00  0.00    +0.068 C 
ATOM     23  C2  CHE B   05     28.935  68.990  12.424  0.00  0.00    +0.074 A 
ATOM     24  N1  CHE B   05     27.365  70.937   7.944  0.00  0.00    -0.247 NA
ATOM     25  C3  CHE B   05     27.634  69.340   9.244  0.00  0.00    +0.092 A 
ATOM     26  C18 CHE B   05     28.781  67.534  12.678  0.00  0.00    +0.033 A 
ATOM     27  C19 CHE B   05     27.800  71.932   8.542  0.00  0.00    +0.042 A 
ATOM     28  C20 CHE B   05     29.400  68.946  13.527  0.00  0.00    +0.144 A 
ATOM     29  F1  CHE B   05     27.942  74.468   7.806  0.00  0.00    -0.204 F 
ENDBRANCH   1  25
BRANCH   7  30
ATOM     30  S1  CHE B   05     19.178  69.294   4.780  0.00  0.00    +0.029 S 
ATOM     31  O1  CHE B   05     18.347  69.140   6.663  0.00  0.00    -0.158 OA
ATOM     32  O2  CHE B   05     18.055  69.064   7.625  0.00  0.00    -0.158 OA
ATOM     33  C8  CHE B   05     17.492  68.697  12.587  0.00  0.00    +0.215 C 
ENDBRANCH   7  30
TORSDOF 3
ENDMDL
MODEL 9
REMARK VINA RESULT:      -6.3      4.572      7.024
REMARK  Name = dock_mp/CHEMBL4/CHEMBL480583.pdb
REMARK  5 active torsions:
REMARK  status: ('A' for Active; 'I' for Inactive)
REMARK    1  A    between atoms: C1_1  and  C2_2
REMARK    2  A    between atoms: C3_4  and  C4_5
REMARK    3  A    between atoms: N4_11  and  S1_12
REMARK    4  A    between atoms: S1_12  and  C8_15
REMARK    5  A    between atoms: C11_19  and  C12_20
REMARK                            x       y       z     vdW  Elec       q    Type
REMARK                         _______ _______ _______ _____ _____    ______ ____
ROOT
ATOM      1  C4  CHE B   05     25.688  69.193   9.000  0.00  0.00    +0.117 A 
ATOM      2  N2  CHE B   05     24.239  68.477  12.835  0.00  0.00    -0.212 NA
ATOM      3  C5  CHE B   05     23.294  68.431  12.754  0.00  0.00    +0.197 A 
ATOM      4  N3  CHE B   05     22.016  68.531  11.655  0.00  0.00    -0.299 N 
ATOM      5  C6  CHE B   05     21.283  68.818   9.613  0.00  0.00    +0.125 C 
ATOM      6  C7  CHE B   05     20.002  69.079   7.523  0.00  0.00    +0.128 C 
ATOM      7  N4  CHE B   05     19.521  68.733   9.462  0.00  0.00    -0.178 NA
ATOM      8  C9  CHE B   05     20.288  68.770   9.527  0.00  0.00    +0.128 C 
ATOM      9  C10 CHE B   05     21.254  67.848  15.549  0.00  0.00    +0.125 C 
ATOM     10  N5  CHE B   05     24.252  69.285   7.887  0.00  0.00    -0.325 N 
ATOM     11  C11 CHE B   05     25.297  68.851  10.946  0.00  0.00    +0.078 A 
ATOM     12  H15 CHE B   05     23.115  67.938  15.708  0.00  0.00    +0.169 HD
ENDROOT
BRANCH  11  13
ATOM     13  C12 CHE B   05     26.405  69.227   9.061  0.00  0.00    +0.019 A 
ATOM     14  C13 CHE B   05     25.810  67.151   9.843  0.00  0.00    +0.015 A 
ATOM     15  C14 CHE B   05     26.033  66.411   9.363  0.00  0.00    +0.049 A 
ATOM     16  C15 CHE B   05     25.104  65.441  10.863  0.00  0.00    +0.156 A 
ATOM     17  N6  CHE B   05     27.452  67.781   7.058  0.00  0.00    -0.215 NA
ATOM     18  C16 CHE B   05     27.283  68.342   7.422  0.00  0.00    +0.246 A 
ATOM     19  N7  CHE B   05     26.143  68.071   9.376  0.00  0.00    -0.154 NA
ATOM     20  N8  CHE B   05     24.830  66.352  11.454  0.00  0.00    -0.220 N 
ATOM     21  C17 CHE B   05     23.303  65.340  13.991  0.00  0.00    +0.124 A 
ENDBRANCH  11  13
BRANCH   1  25
ATOM     22  C1  CHE B   05     28.355  69.423  13.607  0.00  0.00    +0.068 C 
ATOM     23  C2  CHE B   05     28.339  68.393  14.108  0.00  0.00    +0.074 A 
ATOM     24  N1  CHE B   05     26.547  70.561   9.817  0.00  0.00    -0.247 NA
ATOM     25  C3  CHE B   05     26.780  68.923  11.073  0.00  0.00    +0.092 A 
ATOM     26  C18 CHE B   05     28.067  66.954  14.366  0.00  0.00    +0.033 A 
ATOM     27  C19 CHE B   05     27.135  71.498  10.377  0.00  0.00    +0.042 A 
ATOM     28  C20 CHE B   05     28.902  68.284  15.160  0.00  0.00    +0.144 A 
ATOM     29  F1  CHE B   05     27.457  74.020   9.650  0.00  0.00    -0.204 F 
ENDBRANCH   1  25
BRANCH   7  30
ATOM     30  S1  CHE B   05     17.972  68.981   7.350  0.00  0.00    +0.029 S 
ATOM     31  O1  CHE B   05     17.344  68.374   9.220  0.00  0.00    -0.158 OA
ATOM     32  O2  CHE B   05     17.153  68.090  10.168  0.00  0.00    -0.158 OA
ATOM     33  C8  CHE B   05     17.089  66.820  15.011  0.00  0.00    +0.215 C 
ENDBRANCH   7  30
TORSDOF 3
ENDMDL
MODEL 10
REMARK VINA RESULT:      -6.2      4.514      7.713
REMARK  Name = dock_mp/CHEMBL4/CHEMBL480583.pdb
REMARK  5 active torsions:
REMARK  status: ('A' for Active; 'I' for Inactive)
REMARK    1  A    between atoms: C1_1  and  C2_2
REMARK    2  A    between atoms: C3_4  and  C4_5
REMARK    3  A    between atoms: N4_11  and  S1_12
REMARK    4  A    between atoms: S1_12  and  C8_15
REMARK    5  A    between atoms: C11_19  and  C12_20
REMARK                            x       y       z     vdW  Elec       q    Type
REMARK                         _______ _______ _______ _____ _____    ______ ____
ROOT
ATOM      1  C4  CHE B   05     24.687  67.638  12.546  0.00  0.00    +0.117 A 
ATOM      2  N2  CHE B   05     26.694  68.050   8.923  0.00  0.00    -0.212 NA
ATOM      3  C5  CHE B   05     26.026  68.231   8.272  0.00  0.00    +0.197 A 
ATOM      4  N3  CHE B   05     24.366  68.442   8.049  0.00  0.00    -0.299 N 
ATOM      5  C6  CHE B   05     22.332  68.514   8.856  0.00  0.00    +0.125 C 
ATOM      6  C7  CHE B   05     19.912  68.692   9.287  0.00  0.00    +0.128 C 
ATOM      7  N4  CHE B   05     21.088  68.851   7.643  0.00  0.00    -0.178 NA
ATOM      8  C9  CHE B   05     21.629  68.705   8.171  0.00  0.00    +0.128 C 
ATOM      9  C10 CHE B   05     26.858  68.722   4.899  0.00  0.00    +0.125 C 
ATOM     10  N5  CHE B   05     22.914  67.879  12.213  0.00  0.00    -0.325 N 
ATOM     11  C11 CHE B   05     25.926  67.780  10.964  0.00  0.00    +0.078 A 
ATOM     12  H15 CHE B   05     28.173  68.366   6.180  0.00  0.00    +0.169 HD
ENDROOT
BRANCH  11  13
ATOM     13  C12 CHE B   05     25.193  67.501  13.039  0.00  0.00    +0.019 A 
ATOM     14  C13 CHE B   05     25.430  65.820  11.492  0.00  0.00    +0.015 A 
ATOM     15  C14 CHE B   05     25.214  64.966  11.721  0.00  0.00    +0.049 A 
ATOM     16  C15 CHE B   05     25.774  64.561   9.831  0.00  0.00    +0.156 A 
ATOM     17  N6  CHE B   05     24.349  65.476  14.584  0.00  0.00    -0.215 NA
ATOM     18  C16 CHE B   05     24.513  66.123  14.410  0.00  0.00    +0.246 A 
ATOM     19  N7  CHE B   05     25.277  66.524  12.302  0.00  0.00    -0.154 NA
ATOM     20  N8  CHE B   05     26.039  65.611   9.548  0.00  0.00    -0.220 N 
ATOM     21  C17 CHE B   05     27.008  65.514   6.574  0.00  0.00    +0.124 A 
ENDBRANCH  11  13
BRANCH   1  25
ATOM     22  C1  CHE B   05     29.920  68.097  11.657  0.00  0.00    +0.068 C 
ATOM     23  C2  CHE B   05     30.296  67.165  11.106  0.00  0.00    +0.074 A 
ATOM     24  N1  CHE B   05     25.859  68.954  12.959  0.00  0.00    -0.247 NA
ATOM     25  C3  CHE B   05     26.973  67.497  11.985  0.00  0.00    +0.092 A 
ATOM     26  C18 CHE B   05     30.322  65.840  10.432  0.00  0.00    +0.033 A 
ATOM     27  C19 CHE B   05     26.662  69.855  13.242  0.00  0.00    +0.042 A 
ATOM     28  C20 CHE B   05     31.462  67.119  10.834  0.00  0.00    +0.144 A 
ATOM     29  F1  CHE B   05     26.305  72.163  14.483  0.00  0.00    -0.204 F 
ENDBRANCH   1  25
BRANCH   7  30
ATOM     30  S1  CHE B   05     18.478  69.080   7.889  0.00  0.00    +0.029 S 
ATOM     31  O1  CHE B   05     19.620  69.993   6.431  0.00  0.00    -0.158 OA
ATOM     32  O2  CHE B   05     20.273  70.385   5.770  0.00  0.00    -0.158 OA
ATOM     33  C8  CHE B   05     24.142  71.876   2.964  0.00  0.00    +0.215 C 
ENDBRANCH   7  30
TORSDOF 3
ENDMDL
