MODEL 1
REMARK VINA RESULT:     -10.5      0.000      0.000
REMARK  Name = dock_mp/CHEMBL4/CHEMBL410456.pdb
REMARK  4 active torsions:
REMARK  status: ('A' for Active; 'I' for Inactive)
REMARK    1  A    between atoms: C1_2  and  C2_4
REMARK    2  A    between atoms: C5_7  and  C6_8
REMARK    3  A    between atoms: C7_10  and  C8_11
REMARK    4  A    between atoms: C16_21  and  C17_22
REMARK                            x       y       z     vdW  Elec       q    Type
REMARK                         _______ _______ _______ _____ _____    ______ ____
ROOT
ATOM      1  C6  CHE B   04     20.639  69.172   6.751  0.00  0.00    +0.139 A 
ATOM      2  N2  CHE B   04     25.245  70.015   4.690  0.00  0.00    -0.227 NA
ATOM      3  C7  CHE B   04     19.575  68.701  10.297  0.00  0.00    +0.099 A 
ATOM      4  C16 CHE B   04     20.149  68.863   9.413  0.00  0.00    +0.093 A 
ATOM      5  N4  CHE B   04     19.349  68.846   8.326  0.00  0.00    -0.336 N 
ATOM      6  H16 CHE B   04     24.569  70.001   3.772  0.00  0.00    +0.167 HD
ENDROOT
BRANCH   3   7
ATOM      7  C8  CHE B   04     20.381  68.718  11.392  0.00  0.00    +0.006 A 
ATOM      8  C9  CHE B   04     20.606  68.722  11.698  0.00  0.00    +0.014 A 
ATOM      9  C10 CHE B   04     19.138  67.581  14.373  0.00  0.00    +0.050 A 
ATOM     10  C11 CHE B   04     17.432  66.435  16.725  0.00  0.00    +0.162 A 
ATOM     11  O2  CHE B   04     18.931  66.836  17.206  0.00  0.00    -0.485 OA
ATOM     12  C12 CHE B   04     22.509  68.391  15.841  0.00  0.00    +0.270 C 
ATOM     13  C13 CHE B   04     19.263  66.843  17.657  0.00  0.00    +0.270 C 
ATOM     14  O3  CHE B   04     17.758  66.442  17.168  0.00  0.00    -0.485 OA
ATOM     15  C14 CHE B   04     17.219  66.431  16.435  0.00  0.00    +0.163 A 
ATOM     16  C15 CHE B   04     17.201  66.801  14.854  0.00  0.00    +0.059 A 
ENDBRANCH   3   7
BRANCH   1  20
ATOM     17  C2  CHE B   04     17.599  68.348   4.060  0.00  0.00    +0.037 A 
ATOM     18  C3  CHE B   04     16.233  67.881   5.481  0.00  0.00    +0.014 A 
ATOM     19  C4  CHE B   04     21.633  69.609   3.098  0.00  0.00    +0.012 A 
ATOM     20  C5  CHE B   04     21.396  69.487   4.451  0.00  0.00    +0.017 A 
ATOM     21  C22 CHE B   04     23.540  70.211   2.458  0.00  0.00    +0.012 A 
ATOM     22  C23 CHE B   04     16.594  67.972   6.002  0.00  0.00    +0.014 A 
BRANCH  17  24
ATOM     23  N1  CHE B   04     15.790  67.897   3.186  0.00  0.00    -0.325 N 
ATOM     24  C1  CHE B   04     16.031  67.893   3.493  0.00  0.00    +0.242 C 
ATOM     25  O1  CHE B   04     17.587  69.306   1.183  0.00  0.00    -0.270 OA
ATOM     26  H1  CHE B   04     16.481  68.365   2.636  0.00  0.00    +0.145 HD
ATOM     27  H2  CHE B   04     14.203  66.963   4.027  0.00  0.00    +0.145 HD
ENDBRANCH  17  24
ENDBRANCH   1  20
BRANCH   4  28
ATOM     28  C17 CHE B   04     22.239  69.205   8.925  0.00  0.00    +0.089 A 
ATOM     29  C18 CHE B   04     24.329  69.547   8.438  0.00  0.00    +0.030 A 
ATOM     30  C19 CHE B   04     26.379  69.961   7.986  0.00  0.00    +0.004 A 
ATOM     31  C20 CHE B   04     23.769  68.503   8.257  0.00  0.00    +0.020 A 
ATOM     32  C21 CHE B   04     19.965  67.143   8.903  0.00  0.00    +0.111 A 
ATOM     33  N3  CHE B   04     23.909  70.303   8.806  0.00  0.00    -0.253 NA
ENDBRANCH   4  28
TORSDOF 4
ENDMDL
MODEL 2
REMARK VINA RESULT:     -10.0      3.174      6.349
REMARK  Name = dock_mp/CHEMBL4/CHEMBL410456.pdb
REMARK  4 active torsions:
REMARK  status: ('A' for Active; 'I' for Inactive)
REMARK    1  A    between atoms: C1_2  and  C2_4
REMARK    2  A    between atoms: C5_7  and  C6_8
REMARK    3  A    between atoms: C7_10  and  C8_11
REMARK    4  A    between atoms: C16_21  and  C17_22
REMARK                            x       y       z     vdW  Elec       q    Type
REMARK                         _______ _______ _______ _____ _____    ______ ____
ROOT
ATOM      1  C6  CHE B   04     20.551  69.941   6.063  0.00  0.00    +0.139 A 
ATOM      2  N2  CHE B   04     16.467  67.368   4.370  0.00  0.00    -0.227 NA
ATOM      3  C7  CHE B   04     21.951  70.358   9.498  0.00  0.00    +0.099 A 
ATOM      4  C16 CHE B   04     21.349  70.073   8.665  0.00  0.00    +0.093 A 
ATOM      5  N4  CHE B   04     21.843  70.604   7.526  0.00  0.00    -0.336 N 
ATOM      6  H16 CHE B   04     16.885  67.816   3.409  0.00  0.00    +0.167 HD
ENDROOT
BRANCH   3   7
ATOM      7  C8  CHE B   04     21.453  69.823  10.645  0.00  0.00    +0.006 A 
ATOM      8  C9  CHE B   04     21.313  69.674  10.965  0.00  0.00    +0.014 A 
ATOM      9  C10 CHE B   04     23.106  67.199  12.096  0.00  0.00    +0.050 A 
ATOM     10  C11 CHE B   04     25.044  64.882  12.890  0.00  0.00    +0.162 A 
ATOM     11  O2  CHE B   04     23.823  65.037  13.949  0.00  0.00    -0.485 OA
ATOM     12  C12 CHE B   04     20.432  67.262  14.746  0.00  0.00    +0.270 C 
ATOM     13  C13 CHE B   04     23.618  64.817  14.421  0.00  0.00    +0.270 C 
ATOM     14  O3  CHE B   04     24.843  64.666  13.353  0.00  0.00    -0.485 OA
ATOM     15  C14 CHE B   04     25.176  65.024  12.586  0.00  0.00    +0.163 A 
ATOM     16  C15 CHE B   04     24.893  66.185  11.487  0.00  0.00    +0.059 A 
ENDBRANCH   3   7
BRANCH   1  20
ATOM     17  C2  CHE B   04     23.518  69.445   3.215  0.00  0.00    +0.037 A 
ATOM     18  C3  CHE B   04     25.049  69.605   4.531  0.00  0.00    +0.014 A 
ATOM     19  C4  CHE B   04     19.239  69.443   2.520  0.00  0.00    +0.012 A 
ATOM     20  C5  CHE B   04     19.589  69.632   3.841  0.00  0.00    +0.017 A 
ATOM     21  C22 CHE B   04     17.202  69.415   2.009  0.00  0.00    +0.012 A 
ATOM     22  C23 CHE B   04     24.712  69.693   5.068  0.00  0.00    +0.014 A 
BRANCH  17  24
ATOM     23  N1  CHE B   04     25.322  69.334   2.230  0.00  0.00    -0.325 N 
ATOM     24  C1  CHE B   04     25.110  69.308   2.556  0.00  0.00    +0.242 C 
ATOM     25  O1  CHE B   04     23.114  70.048   0.270  0.00  0.00    -0.270 OA
ATOM     26  H1  CHE B   04     24.504  69.562   1.702  0.00  0.00    +0.145 HD
ATOM     27  H2  CHE B   04     27.139  68.898   3.010  0.00  0.00    +0.145 HD
ENDBRANCH  17  24
ENDBRANCH   1  20
BRANCH   4  28
ATOM     28  C17 CHE B   04     19.562  68.880   8.340  0.00  0.00    +0.089 A 
ATOM     29  C18 CHE B   04     17.775  67.686   8.016  0.00  0.00    +0.030 A 
ATOM     30  C19 CHE B   04     15.971  66.575   7.722  0.00  0.00    +0.004 A 
ATOM     31  C20 CHE B   04     18.886  67.287   7.807  0.00  0.00    +0.020 A 
ATOM     32  C21 CHE B   04     22.627  68.903   8.169  0.00  0.00    +0.111 A 
ATOM     33  N3  CHE B   04     17.587  68.549   8.337  0.00  0.00    -0.253 NA
ENDBRANCH   4  28
TORSDOF 4
ENDMDL
MODEL 3
REMARK VINA RESULT:     -10.0      4.279      7.383
REMARK  Name = dock_mp/CHEMBL4/CHEMBL410456.pdb
REMARK  4 active torsions:
REMARK  status: ('A' for Active; 'I' for Inactive)
REMARK    1  A    between atoms: C1_2  and  C2_4
REMARK    2  A    between atoms: C5_7  and  C6_8
REMARK    3  A    between atoms: C7_10  and  C8_11
REMARK    4  A    between atoms: C16_21  and  C17_22
REMARK                            x       y       z     vdW  Elec       q    Type
REMARK                         _______ _______ _______ _____ _____    ______ ____
ROOT
ATOM      1  C6  CHE B   04     20.339  68.495   9.782  0.00  0.00    +0.139 A 
ATOM      2  N2  CHE B   04     20.202  65.815  14.137  0.00  0.00    -0.227 NA
ATOM      3  C7  CHE B   04     23.196  69.528   7.614  0.00  0.00    +0.099 A 
ATOM      4  C16 CHE B   04     22.602  69.110   8.394  0.00  0.00    +0.093 A 
ATOM      5  N4  CHE B   04     21.296  69.380   8.184  0.00  0.00    -0.336 N 
ATOM      6  H16 CHE B   04     19.100  66.043  13.960  0.00  0.00    +0.167 HD
ENDROOT
BRANCH   3   7
ATOM      7  C8  CHE B   04     24.512  69.256   7.825  0.00  0.00    +0.006 A 
ATOM      8  C9  CHE B   04     24.879  69.180   7.884  0.00  0.00    +0.014 A 
ATOM      9  C10 CHE B   04     25.915  70.123  10.825  0.00  0.00    +0.050 A 
ATOM     10  C11 CHE B   04     26.564  71.145  13.705  0.00  0.00    +0.162 A 
ATOM     11  O2  CHE B   04     27.866  70.490  12.989  0.00  0.00    -0.485 OA
ATOM     12  C12 CHE B   04     29.129  68.687   9.491  0.00  0.00    +0.270 C 
ATOM     13  C13 CHE B   04     28.408  70.378  13.075  0.00  0.00    +0.270 C 
ATOM     14  O3  CHE B   04     27.096  71.035  13.790  0.00  0.00    -0.485 OA
ATOM     15  C14 CHE B   04     26.215  71.217  13.649  0.00  0.00    +0.163 A 
ATOM     16  C15 CHE B   04     25.041  71.074  12.535  0.00  0.00    +0.059 A 
ENDBRANCH   3   7
BRANCH   1  20
ATOM     17  C2  CHE B   04     17.046  67.305   7.568  0.00  0.00    +0.037 A 
ATOM     18  C3  CHE B   04     17.911  67.657   5.770  0.00  0.00    +0.014 A 
ATOM     19  C4  CHE B   04     17.376  67.355  11.889  0.00  0.00    +0.012 A 
ATOM     20  C5  CHE B   04     18.512  67.789  11.239  0.00  0.00    +0.017 A 
ATOM     21  C22 CHE B   04     17.367  67.316  13.989  0.00  0.00    +0.012 A 
ATOM     22  C23 CHE B   04     18.481  67.867   5.971  0.00  0.00    +0.014 A 
BRANCH  17  24
ATOM     23  N1  CHE B   04     15.720  66.881   6.051  0.00  0.00    -0.325 N 
ATOM     24  C1  CHE B   04     16.079  66.968   6.175  0.00  0.00    +0.242 C 
ATOM     25  O1  CHE B   04     14.283  66.835   8.727  0.00  0.00    -0.270 OA
ATOM     26  H1  CHE B   04     15.379  66.899   6.991  0.00  0.00    +0.145 HD
ATOM     27  H2  CHE B   04     16.098  66.770   4.065  0.00  0.00    +0.145 HD
ENDBRANCH  17  24
ENDBRANCH   1  20
BRANCH   4  28
ATOM     28  C17 CHE B   04     22.951  67.954  10.201  0.00  0.00    +0.089 A 
ATOM     29  C18 CHE B   04     23.301  66.799  12.008  0.00  0.00    +0.030 A 
ATOM     30  C19 CHE B   04     23.654  65.593  13.740  0.00  0.00    +0.004 A 
ATOM     31  C20 CHE B   04     23.089  67.978  12.006  0.00  0.00    +0.020 A 
ATOM     32  C21 CHE B   04     22.361  70.755   9.091  0.00  0.00    +0.111 A 
ATOM     33  N3  CHE B   04     23.333  66.278  11.226  0.00  0.00    -0.253 NA
ENDBRANCH   4  28
TORSDOF 4
ENDMDL
MODEL 4
REMARK VINA RESULT:      -9.8      4.263      9.489
REMARK  Name = dock_mp/CHEMBL4/CHEMBL410456.pdb
REMARK  4 active torsions:
REMARK  status: ('A' for Active; 'I' for Inactive)
REMARK    1  A    between atoms: C1_2  and  C2_4
REMARK    2  A    between atoms: C5_7  and  C6_8
REMARK    3  A    between atoms: C7_10  and  C8_11
REMARK    4  A    between atoms: C16_21  and  C17_22
REMARK                            x       y       z     vdW  Elec       q    Type
REMARK                         _______ _______ _______ _____ _____    ______ ____
ROOT
ATOM      1  C6  CHE B   04     20.194  68.785  10.509  0.00  0.00    +0.139 A 
ATOM      2  N2  CHE B   04     20.207  65.332  14.284  0.00  0.00    -0.227 NA
ATOM      3  C7  CHE B   04     22.982  70.282   8.531  0.00  0.00    +0.099 A 
ATOM      4  C16 CHE B   04     22.413  69.709   9.227  0.00  0.00    +0.093 A 
ATOM      5  N4  CHE B   04     21.097  69.979   9.092  0.00  0.00    -0.336 N 
ATOM      6  H16 CHE B   04     19.096  65.560  14.170  0.00  0.00    +0.167 HD
ENDROOT
BRANCH   3   7
ATOM      7  C8  CHE B   04     24.307  70.010   8.666  0.00  0.00    +0.006 A 
ATOM      8  C9  CHE B   04     24.678  69.933   8.704  0.00  0.00    +0.014 A 
ATOM      9  C10 CHE B   04     26.093  69.080   5.896  0.00  0.00    +0.050 A 
ATOM     10  C11 CHE B   04     27.118  68.307   3.049  0.00  0.00    +0.162 A 
ATOM     11  O2  CHE B   04     28.306  68.250   4.155  0.00  0.00    -0.485 OA
ATOM     12  C12 CHE B   04     29.084  68.841   8.171  0.00  0.00    +0.270 C 
ATOM     13  C13 CHE B   04     28.852  68.138   4.211  0.00  0.00    +0.270 C 
ATOM     14  O3  CHE B   04     27.654  68.197   3.104  0.00  0.00    -0.485 OA
ATOM     15  C14 CHE B   04     26.767  68.379   3.013  0.00  0.00    +0.163 A 
ATOM     16  C15 CHE B   04     25.460  68.835   3.864  0.00  0.00    +0.059 A 
ENDBRANCH   3   7
BRANCH   1  20
ATOM     17  C2  CHE B   04     17.241  67.202   8.072  0.00  0.00    +0.037 A 
ATOM     18  C3  CHE B   04     18.143  67.738   6.339  0.00  0.00    +0.014 A 
ATOM     19  C4  CHE B   04     17.320  67.153  12.406  0.00  0.00    +0.012 A 
ATOM     20  C5  CHE B   04     18.414  67.770  11.836  0.00  0.00    +0.017 A 
ATOM     21  C22 CHE B   04     17.200  67.041  14.499  0.00  0.00    +0.012 A 
ATOM     22  C23 CHE B   04     18.664  68.022   6.580  0.00  0.00    +0.014 A 
BRANCH  17  24
ATOM     23  N1  CHE B   04     16.068  66.679   6.463  0.00  0.00    -0.325 N 
ATOM     24  C1  CHE B   04     16.414  66.775   6.616  0.00  0.00    +0.242 C 
ATOM     25  O1  CHE B   04     14.378  66.793   8.985  0.00  0.00    -0.270 OA
ATOM     26  H1  CHE B   04     15.638  66.754   7.363  0.00  0.00    +0.145 HD
ATOM     27  H2  CHE B   04     16.637  66.447   4.535  0.00  0.00    +0.145 HD
ENDBRANCH  17  24
ENDBRANCH   1  20
BRANCH   4  28
ATOM     28  C17 CHE B   04     22.826  68.244  10.778  0.00  0.00    +0.089 A 
ATOM     29  C18 CHE B   04     23.238  66.779  12.330  0.00  0.00    +0.030 A 
ATOM     30  C19 CHE B   04     23.654  65.280  13.798  0.00  0.00    +0.004 A 
ATOM     31  C20 CHE B   04     22.994  67.931  12.554  0.00  0.00    +0.020 A 
ATOM     32  C21 CHE B   04     22.140  71.184  10.226  0.00  0.00    +0.111 A 
ATOM     33  N3  CHE B   04     23.271  66.416  11.463  0.00  0.00    -0.253 NA
ENDBRANCH   4  28
TORSDOF 4
ENDMDL
MODEL 5
REMARK VINA RESULT:      -9.6      4.189     10.198
REMARK  Name = dock_mp/CHEMBL4/CHEMBL410456.pdb
REMARK  4 active torsions:
REMARK  status: ('A' for Active; 'I' for Inactive)
REMARK    1  A    between atoms: C1_2  and  C2_4
REMARK    2  A    between atoms: C5_7  and  C6_8
REMARK    3  A    between atoms: C7_10  and  C8_11
REMARK    4  A    between atoms: C16_21  and  C17_22
REMARK                            x       y       z     vdW  Elec       q    Type
REMARK                         _______ _______ _______ _____ _____    ______ ____
ROOT
ATOM      1  C6  CHE B   04     23.945  70.589  11.302  0.00  0.00    +0.139 A 
ATOM      2  N2  CHE B   04     24.190  68.766  16.075  0.00  0.00    -0.227 NA
ATOM      3  C7  CHE B   04     21.421  70.087   8.599  0.00  0.00    +0.099 A 
ATOM      4  C16 CHE B   04     21.955  70.049   9.521  0.00  0.00    +0.093 A 
ATOM      5  N4  CHE B   04     23.075  70.800   9.445  0.00  0.00    -0.336 N 
ATOM      6  H16 CHE B   04     25.135  69.401  16.011  0.00  0.00    +0.167 HD
ENDROOT
BRANCH   3   7
ATOM      7  C8  CHE B   04     20.293  69.331   8.676  0.00  0.00    +0.006 A 
ATOM      8  C9  CHE B   04     19.978  69.119   8.697  0.00  0.00    +0.014 A 
ATOM      9  C10 CHE B   04     18.608  68.585   5.790  0.00  0.00    +0.050 A 
ATOM     10  C11 CHE B   04     17.569  68.273   2.861  0.00  0.00    +0.162 A 
ATOM     11  O2  CHE B   04     16.614  67.503   3.926  0.00  0.00    -0.485 OA
ATOM     12  C12 CHE B   04     16.175  66.695   7.955  0.00  0.00    +0.270 C 
ATOM     13  C13 CHE B   04     16.149  67.192   3.958  0.00  0.00    +0.270 C 
ATOM     14  O3  CHE B   04     17.113  67.967   2.892  0.00  0.00    -0.485 OA
ATOM     15  C14 CHE B   04     17.867  68.473   2.841  0.00  0.00    +0.163 A 
ATOM     16  C15 CHE B   04     19.034  69.128   3.762  0.00  0.00    +0.059 A 
ENDBRANCH   3   7
BRANCH   1  20
ATOM     17  C2  CHE B   04     26.080  67.101  11.960  0.00  0.00    +0.037 A 
ATOM     18  C3  CHE B   04     25.137  66.046  10.511  0.00  0.00    +0.014 A 
ATOM     19  C4  CHE B   04     26.526  70.847  14.094  0.00  0.00    +0.012 A 
ATOM     20  C5  CHE B   04     25.562  70.879  13.108  0.00  0.00    +0.017 A 
ATOM     21  C22 CHE B   04     26.870  72.583  15.225  0.00  0.00    +0.012 A 
ATOM     22  C23 CHE B   04     24.738  66.499  10.299  0.00  0.00    +0.014 A 
BRANCH  17  24
ATOM     23  N1  CHE B   04     26.848  65.193  11.865  0.00  0.00    -0.325 N 
ATOM     24  C1  CHE B   04     26.587  65.461  11.755  0.00  0.00    +0.242 C 
ATOM     25  O1  CHE B   04     28.467  66.866  13.816  0.00  0.00    -0.270 OA
ATOM     26  H1  CHE B   04     27.287  65.854  12.473  0.00  0.00    +0.145 HD
ATOM     27  H2  CHE B   04     26.188  63.643  10.743  0.00  0.00    +0.145 HD
ENDBRANCH  17  24
ENDBRANCH   1  20
BRANCH   4  28
ATOM     28  C17 CHE B   04     21.707  69.087  11.454  0.00  0.00    +0.089 A 
ATOM     29  C18 CHE B   04     21.458  68.125  13.387  0.00  0.00    +0.030 A 
ATOM     30  C19 CHE B   04     21.158  67.237  15.310  0.00  0.00    +0.004 A 
ATOM     31  C20 CHE B   04     22.204  67.725  12.539  0.00  0.00    +0.020 A 
ATOM     32  C21 CHE B   04     23.183  68.966   8.765  0.00  0.00    +0.111 A 
ATOM     33  N3  CHE B   04     20.919  68.889  13.284  0.00  0.00    -0.253 NA
ENDBRANCH   4  28
TORSDOF 4
ENDMDL
MODEL 6
REMARK VINA RESULT:      -9.6      2.875      6.379
REMARK  Name = dock_mp/CHEMBL4/CHEMBL410456.pdb
REMARK  4 active torsions:
REMARK  status: ('A' for Active; 'I' for Inactive)
REMARK    1  A    between atoms: C1_2  and  C2_4
REMARK    2  A    between atoms: C5_7  and  C6_8
REMARK    3  A    between atoms: C7_10  and  C8_11
REMARK    4  A    between atoms: C16_21  and  C17_22
REMARK                            x       y       z     vdW  Elec       q    Type
REMARK                         _______ _______ _______ _____ _____    ______ ____
ROOT
ATOM      1  C6  CHE B   04     20.534  69.890   6.219  0.00  0.00    +0.139 A 
ATOM      2  N2  CHE B   04     16.389  67.434   4.498  0.00  0.00    -0.227 NA
ATOM      3  C7  CHE B   04     21.940  70.238   9.658  0.00  0.00    +0.099 A 
ATOM      4  C16 CHE B   04     21.332  69.977   8.822  0.00  0.00    +0.093 A 
ATOM      5  N4  CHE B   04     21.840  70.507   7.689  0.00  0.00    -0.336 N 
ATOM      6  H16 CHE B   04     16.819  67.881   3.541  0.00  0.00    +0.167 HD
ENDROOT
BRANCH   3   7
ATOM      7  C8  CHE B   04     21.428  69.705  10.799  0.00  0.00    +0.006 A 
ATOM      8  C9  CHE B   04     21.285  69.556  11.118  0.00  0.00    +0.014 A 
ATOM      9  C10 CHE B   04     23.493  69.291  13.499  0.00  0.00    +0.050 A 
ATOM     10  C11 CHE B   04     25.852  69.184  15.543  0.00  0.00    +0.162 A 
ATOM     11  O2  CHE B   04     24.475  68.604  16.179  0.00  0.00    -0.485 OA
ATOM     12  C12 CHE B   04     20.501  67.884  15.299  0.00  0.00    +0.270 C 
ATOM     13  C13 CHE B   04     24.264  68.384  16.649  0.00  0.00    +0.270 C 
ATOM     14  O3  CHE B   04     25.645  68.968  16.005  0.00  0.00    -0.485 OA
ATOM     15  C14 CHE B   04     25.988  69.325  15.241  0.00  0.00    +0.163 A 
ATOM     16  C15 CHE B   04     25.574  69.749  13.729  0.00  0.00    +0.059 A 
ENDBRANCH   3   7
BRANCH   1  20
ATOM     17  C2  CHE B   04     23.494  69.466   3.352  0.00  0.00    +0.037 A 
ATOM     18  C3  CHE B   04     25.028  69.603   4.667  0.00  0.00    +0.014 A 
ATOM     19  C4  CHE B   04     19.213  69.465   2.669  0.00  0.00    +0.012 A 
ATOM     20  C5  CHE B   04     19.566  69.626   3.993  0.00  0.00    +0.017 A 
ATOM     21  C22 CHE B   04     17.175  69.441   2.164  0.00  0.00    +0.012 A 
ATOM     22  C23 CHE B   04     24.692  69.678   5.206  0.00  0.00    +0.014 A 
BRANCH  17  24
ATOM     23  N1  CHE B   04     25.294  69.371   2.357  0.00  0.00    -0.325 N 
ATOM     24  C1  CHE B   04     25.084  69.350   2.685  0.00  0.00    +0.242 C 
ATOM     25  O1  CHE B   04     23.055  69.973   0.394  0.00  0.00    -0.270 OA
ATOM     26  H1  CHE B   04     24.467  69.564   1.829  0.00  0.00    +0.145 HD
ATOM     27  H2  CHE B   04     27.126  69.004   3.136  0.00  0.00    +0.145 HD
ENDBRANCH  17  24
ENDBRANCH   1  20
BRANCH   4  28
ATOM     28  C17 CHE B   04     19.517  68.831   8.485  0.00  0.00    +0.089 A 
ATOM     29  C18 CHE B   04     17.702  67.685   8.147  0.00  0.00    +0.030 A 
ATOM     30  C19 CHE B   04     15.870  66.622   7.840  0.00  0.00    +0.004 A 
ATOM     31  C20 CHE B   04     18.803  67.252   7.958  0.00  0.00    +0.020 A 
ATOM     32  C21 CHE B   04     22.583  68.766   8.356  0.00  0.00    +0.111 A 
ATOM     33  N3  CHE B   04     17.534  68.556   8.457  0.00  0.00    -0.253 NA
ENDBRANCH   4  28
TORSDOF 4
ENDMDL
MODEL 7
REMARK VINA RESULT:      -9.5      2.478      9.791
REMARK  Name = dock_mp/CHEMBL4/CHEMBL410456.pdb
REMARK  4 active torsions:
REMARK  status: ('A' for Active; 'I' for Inactive)
REMARK    1  A    between atoms: C1_2  and  C2_4
REMARK    2  A    between atoms: C5_7  and  C6_8
REMARK    3  A    between atoms: C7_10  and  C8_11
REMARK    4  A    between atoms: C16_21  and  C17_22
REMARK                            x       y       z     vdW  Elec       q    Type
REMARK                         _______ _______ _______ _____ _____    ______ ____
ROOT
ATOM      1  C6  CHE B   04     22.297  69.124  12.057  0.00  0.00    +0.139 A 
ATOM      2  N2  CHE B   04     27.194  67.869  12.844  0.00  0.00    -0.227 NA
ATOM      3  C7  CHE B   04     20.411  69.835   8.917  0.00  0.00    +0.099 A 
ATOM      4  C16 CHE B   04     21.175  69.593   9.620  0.00  0.00    +0.093 A 
ATOM      5  N4  CHE B   04     20.681  69.613  10.876  0.00  0.00    -0.336 N 
ATOM      6  H16 CHE B   04     26.776  67.886  13.905  0.00  0.00    +0.167 HD
ENDROOT
BRANCH   3   7
ATOM      7  C8  CHE B   04     20.909  69.816   7.652  0.00  0.00    +0.006 A 
ATOM      8  C9  CHE B   04     21.048  69.810   7.298  0.00  0.00    +0.014 A 
ATOM      9  C10 CHE B   04     18.831  68.944   5.074  0.00  0.00    +0.050 A 
ATOM     10  C11 CHE B   04     16.468  68.083   3.221  0.00  0.00    +0.162 A 
ATOM     11  O2  CHE B   04     17.831  68.347   2.378  0.00  0.00    -0.485 OA
ATOM     12  C12 CHE B   04     21.788  69.463   2.801  0.00  0.00    +0.270 C 
ATOM     13  C13 CHE B   04     18.036  68.339   1.857  0.00  0.00    +0.270 C 
ATOM     14  O3  CHE B   04     16.670  68.075   2.710  0.00  0.00    -0.485 OA
ATOM     15  C14 CHE B   04     16.336  68.088   3.556  0.00  0.00    +0.163 A 
ATOM     16  C15 CHE B   04     16.761  68.389   5.095  0.00  0.00    +0.059 A 
ENDBRANCH   3   7
BRANCH   1  20
ATOM     17  C2  CHE B   04     19.999  67.094  14.842  0.00  0.00    +0.037 A 
ATOM     18  C3  CHE B   04     18.333  67.050  13.691  0.00  0.00    +0.014 A 
ATOM     19  C4  CHE B   04     24.141  68.291  15.287  0.00  0.00    +0.012 A 
ATOM     20  C5  CHE B   04     23.585  68.649  14.077  0.00  0.00    +0.017 A 
ATOM     21  C22 CHE B   04     26.143  68.796  15.667  0.00  0.00    +0.012 A 
ATOM     22  C23 CHE B   04     18.557  67.358  13.176  0.00  0.00    +0.014 A 
BRANCH  17  24
ATOM     23  N1  CHE B   04     18.414  66.258  15.857  0.00  0.00    -0.325 N 
ATOM     24  C1  CHE B   04     18.615  66.318  15.528  0.00  0.00    +0.242 C 
ATOM     25  O1  CHE B   04     20.143  67.863  17.772  0.00  0.00    -0.270 OA
ATOM     26  H1  CHE B   04     19.068  66.816  16.369  0.00  0.00    +0.145 HD
ATOM     27  H2  CHE B   04     16.938  65.091  15.113  0.00  0.00    +0.145 HD
ENDBRANCH  17  24
ENDBRANCH   1  20
BRANCH   4  28
ATOM     28  C17 CHE B   04     23.287  69.085   9.546  0.00  0.00    +0.089 A 
ATOM     29  C18 CHE B   04     25.398  68.577   9.471  0.00  0.00    +0.030 A 
ATOM     30  C19 CHE B   04     27.495  68.157   9.390  0.00  0.00    +0.004 A 
ATOM     31  C20 CHE B   04     24.526  67.765   9.594  0.00  0.00    +0.020 A 
ATOM     32  C21 CHE B   04     20.445  67.956   9.809  0.00  0.00    +0.111 A 
ATOM     33  N3  CHE B   04     25.240  69.500   9.397  0.00  0.00    -0.253 NA
ENDBRANCH   4  28
TORSDOF 4
ENDMDL
MODEL 8
REMARK VINA RESULT:      -9.3      3.802     11.221
REMARK  Name = dock_mp/CHEMBL4/CHEMBL410456.pdb
REMARK  4 active torsions:
REMARK  status: ('A' for Active; 'I' for Inactive)
REMARK    1  A    between atoms: C1_2  and  C2_4
REMARK    2  A    between atoms: C5_7  and  C6_8
REMARK    3  A    between atoms: C7_10  and  C8_11
REMARK    4  A    between atoms: C16_21  and  C17_22
REMARK                            x       y       z     vdW  Elec       q    Type
REMARK                         _______ _______ _______ _____ _____    ______ ____
ROOT
ATOM      1  C6  CHE B   04     21.960  68.334  12.433  0.00  0.00    +0.139 A 
ATOM      2  N2  CHE B   04     19.527  67.307  16.814  0.00  0.00    -0.227 NA
ATOM      3  C7  CHE B   04     20.705  68.639   8.931  0.00  0.00    +0.099 A 
ATOM      4  C16 CHE B   04     20.773  68.497   9.986  0.00  0.00    +0.093 A 
ATOM      5  N4  CHE B   04     22.051  68.644  10.397  0.00  0.00    -0.336 N 
ATOM      6  H16 CHE B   04     20.606  67.431  17.161  0.00  0.00    +0.167 HD
ENDROOT
BRANCH   3   7
ATOM      7  C8  CHE B   04     19.418  68.491   8.517  0.00  0.00    +0.006 A 
ATOM      8  C9  CHE B   04     19.059  68.449   8.402  0.00  0.00    +0.014 A 
ATOM      9  C10 CHE B   04     18.711  68.810   5.183  0.00  0.00    +0.050 A 
ATOM     10  C11 CHE B   04     18.742  69.215   2.085  0.00  0.00    +0.162 A 
ATOM     11  O2  CHE B   04     17.246  68.909   2.640  0.00  0.00    -0.485 OA
ATOM     12  C12 CHE B   04     15.123  68.131   6.100  0.00  0.00    +0.270 C 
ATOM     13  C13 CHE B   04     16.716  68.848   2.469  0.00  0.00    +0.270 C 
ATOM     14  O3  CHE B   04     18.221  69.155   1.918  0.00  0.00    -0.485 OA
ATOM     15  C14 CHE B   04     19.082  69.254   2.195  0.00  0.00    +0.163 A 
ATOM     16  C15 CHE B   04     20.009  69.227   3.529  0.00  0.00    +0.059 A 
ENDBRANCH   3   7
BRANCH   1  20
ATOM     17  C2  CHE B   04     25.484  70.426  13.035  0.00  0.00    +0.037 A 
ATOM     18  C3  CHE B   04     25.617  71.092  11.127  0.00  0.00    +0.014 A 
ATOM     19  C4  CHE B   04     23.307  68.121  15.991  0.00  0.00    +0.012 A 
ATOM     20  C5  CHE B   04     22.720  68.122  14.743  0.00  0.00    +0.017 A 
ATOM     21  C22 CHE B   04     22.380  67.051  17.542  0.00  0.00    +0.012 A 
ATOM     22  C23 CHE B   04     25.088  70.822  10.889  0.00  0.00    +0.014 A 
BRANCH  17  24
ATOM     23  N1  CHE B   04     27.138  71.633  12.818  0.00  0.00    -0.325 N 
ATOM     24  C1  CHE B   04     26.850  71.419  12.665  0.00  0.00    +0.242 C 
ATOM     25  O1  CHE B   04     26.519  71.242  15.766  0.00  0.00    -0.270 OA
ATOM     26  H1  CHE B   04     26.821  71.421  13.742  0.00  0.00    +0.145 HD
ATOM     27  H2  CHE B   04     28.015  72.241  11.098  0.00  0.00    +0.145 HD
ENDBRANCH  17  24
ENDBRANCH   1  20
BRANCH   4  28
ATOM     28  C17 CHE B   04     19.405  68.040  11.611  0.00  0.00    +0.089 A 
ATOM     29  C18 CHE B   04     18.036  67.584  13.236  0.00  0.00    +0.030 A 
ATOM     30  C19 CHE B   04     16.687  67.056  14.810  0.00  0.00    +0.004 A 
ATOM     31  C20 CHE B   04     18.486  68.676  13.036  0.00  0.00    +0.020 A 
ATOM     32  C21 CHE B   04     21.042  70.258  10.261  0.00  0.00    +0.111 A 
ATOM     33  N3  CHE B   04     18.239  66.835  12.705  0.00  0.00    -0.253 NA
ENDBRANCH   4  28
TORSDOF 4
ENDMDL
MODEL 9
REMARK VINA RESULT:      -9.1      4.675      9.952
REMARK  Name = dock_mp/CHEMBL4/CHEMBL410456.pdb
REMARK  4 active torsions:
REMARK  status: ('A' for Active; 'I' for Inactive)
REMARK    1  A    between atoms: C1_2  and  C2_4
REMARK    2  A    between atoms: C5_7  and  C6_8
REMARK    3  A    between atoms: C7_10  and  C8_11
REMARK    4  A    between atoms: C16_21  and  C17_22
REMARK                            x       y       z     vdW  Elec       q    Type
REMARK                         _______ _______ _______ _____ _____    ______ ____
ROOT
ATOM      1  C6  CHE B   04     23.930  70.656  10.827  0.00  0.00    +0.139 A 
ATOM      2  N2  CHE B   04     24.796  69.005  15.590  0.00  0.00    -0.227 NA
ATOM      3  C7  CHE B   04     21.170  69.914   8.426  0.00  0.00    +0.099 A 
ATOM      4  C16 CHE B   04     21.801  69.937   9.285  0.00  0.00    +0.093 A 
ATOM      5  N4  CHE B   04     22.855  70.753   9.070  0.00  0.00    -0.336 N 
ATOM      6  H16 CHE B   04     25.686  69.693  15.409  0.00  0.00    +0.167 HD
ENDROOT
BRANCH   3   7
ATOM      7  C8  CHE B   04     20.108  69.092   8.643  0.00  0.00    +0.006 A 
ATOM      8  C9  CHE B   04     19.812  68.862   8.703  0.00  0.00    +0.014 A 
ATOM      9  C10 CHE B   04     18.082  68.283   6.004  0.00  0.00    +0.050 A 
ATOM     10  C11 CHE B   04     16.665  67.946   3.241  0.00  0.00    +0.162 A 
ATOM     11  O2  CHE B   04     15.912  67.110   4.412  0.00  0.00    -0.485 OA
ATOM     12  C12 CHE B   04     16.084  66.231   8.447  0.00  0.00    +0.270 C 
ATOM     13  C13 CHE B   04     15.475  66.771   4.501  0.00  0.00    +0.270 C 
ATOM     14  O3  CHE B   04     16.236  67.613   3.328  0.00  0.00    -0.485 OA
ATOM     15  C14 CHE B   04     16.946  68.163   3.183  0.00  0.00    +0.163 A 
ATOM     16  C15 CHE B   04     18.192  68.874   3.947  0.00  0.00    +0.059 A 
ENDBRANCH   3   7
BRANCH   1  20
ATOM     17  C2  CHE B   04     27.662  70.081   9.124  0.00  0.00    +0.037 A 
ATOM     18  C3  CHE B   04     26.942  69.554   7.305  0.00  0.00    +0.014 A 
ATOM     19  C4  CHE B   04     26.840  71.307  13.199  0.00  0.00    +0.012 A 
ATOM     20  C5  CHE B   04     25.707  71.102  12.440  0.00  0.00    +0.017 A 
ATOM     21  C22 CHE B   04     26.620  71.905  15.200  0.00  0.00    +0.012 A 
ATOM     22  C23 CHE B   04     26.315  69.601   7.427  0.00  0.00    +0.014 A 
BRANCH  17  24
ATOM     23  N1  CHE B   04     29.221  69.669   7.843  0.00  0.00    -0.325 N 
ATOM     24  C1  CHE B   04     28.839  69.700   7.917  0.00  0.00    +0.242 C 
ATOM     25  O1  CHE B   04     30.300  70.438  10.577  0.00  0.00    -0.270 OA
ATOM     26  H1  CHE B   04     29.434  69.937   8.783  0.00  0.00    +0.145 HD
ATOM     27  H2  CHE B   04     29.118  69.107   5.902  0.00  0.00    +0.145 HD
ENDBRANCH  17  24
ENDBRANCH   1  20
BRANCH   4  28
ATOM     28  C17 CHE B   04     21.821  69.024  11.257  0.00  0.00    +0.089 A 
ATOM     29  C18 CHE B   04     21.842  68.111  13.229  0.00  0.00    +0.030 A 
ATOM     30  C19 CHE B   04     21.807  67.270  15.196  0.00  0.00    +0.004 A 
ATOM     31  C20 CHE B   04     22.493  67.710  12.307  0.00  0.00    +0.020 A 
ATOM     32  C21 CHE B   04     22.964  68.872   8.412  0.00  0.00    +0.111 A 
ATOM     33  N3  CHE B   04     21.269  68.855  13.174  0.00  0.00    -0.253 NA
ENDBRANCH   4  28
TORSDOF 4
ENDMDL
MODEL 10
REMARK VINA RESULT:      -8.9      4.573      7.942
REMARK  Name = dock_mp/CHEMBL4/CHEMBL410456.pdb
REMARK  4 active torsions:
REMARK  status: ('A' for Active; 'I' for Inactive)
REMARK    1  A    between atoms: C1_2  and  C2_4
REMARK    2  A    between atoms: C5_7  and  C6_8
REMARK    3  A    between atoms: C7_10  and  C8_11
REMARK    4  A    between atoms: C16_21  and  C17_22
REMARK                            x       y       z     vdW  Elec       q    Type
REMARK                         _______ _______ _______ _____ _____    ______ ____
ROOT
ATOM      1  C6  CHE B   04     20.290  69.228  11.795  0.00  0.00    +0.139 A 
ATOM      2  N2  CHE B   04     19.937  65.727  15.508  0.00  0.00    -0.227 NA
ATOM      3  C7  CHE B   04     23.231  71.059  10.407  0.00  0.00    +0.099 A 
ATOM      4  C16 CHE B   04     22.603  70.414  10.978  0.00  0.00    +0.093 A 
ATOM      5  N4  CHE B   04     21.318  70.541  10.583  0.00  0.00    -0.336 N 
ATOM      6  H16 CHE B   04     18.852  65.834  15.174  0.00  0.00    +0.167 HD
ENDROOT
BRANCH   3   7
ATOM      7  C8  CHE B   04     24.525  70.931  10.805  0.00  0.00    +0.006 A 
ATOM      8  C9  CHE B   04     24.887  70.895  10.916  0.00  0.00    +0.014 A 
ATOM      9  C10 CHE B   04     25.951  67.818  10.805  0.00  0.00    +0.050 A 
ATOM     10  C11 CHE B   04     26.635  64.779  10.578  0.00  0.00    +0.162 A 
ATOM     11  O2  CHE B   04     27.901  65.644  11.113  0.00  0.00    -0.485 OA
ATOM     12  C12 CHE B   04     29.083  69.490  12.061  0.00  0.00    +0.270 C 
ATOM     13  C13 CHE B   04     28.434  65.592  11.277  0.00  0.00    +0.270 C 
ATOM     14  O3  CHE B   04     27.158  64.727  10.739  0.00  0.00    -0.485 OA
ATOM     15  C14 CHE B   04     26.292  64.813  10.472  0.00  0.00    +0.163 A 
ATOM     16  C15 CHE B   04     25.122  65.919  10.258  0.00  0.00    +0.059 A 
ENDBRANCH   3   7
BRANCH   1  20
ATOM     17  C2  CHE B   04     17.858  67.700   8.810  0.00  0.00    +0.037 A 
ATOM     18  C3  CHE B   04     18.971  68.437   7.287  0.00  0.00    +0.014 A 
ATOM     19  C4  CHE B   04     17.284  67.273  13.085  0.00  0.00    +0.012 A 
ATOM     20  C5  CHE B   04     18.405  68.000  12.744  0.00  0.00    +0.017 A 
ATOM     21  C22 CHE B   04     16.858  66.971  15.119  0.00  0.00    +0.012 A 
ATOM     22  C23 CHE B   04     19.428  68.728   7.627  0.00  0.00    +0.014 A 
BRANCH  17  24
ATOM     23  N1  CHE B   04     17.015  67.175   7.006  0.00  0.00    -0.325 N 
ATOM     24  C1  CHE B   04     17.292  67.356   7.213  0.00  0.00    +0.242 C 
ATOM     25  O1  CHE B   04     15.373  66.028   9.290  0.00  0.00    -0.270 OA
ATOM     26  H1  CHE B   04     16.574  66.862   7.847  0.00  0.00    +0.145 HD
ATOM     27  H2  CHE B   04     17.664  67.649   5.148  0.00  0.00    +0.145 HD
ENDBRANCH  17  24
ENDBRANCH   1  20
BRANCH   4  28
ATOM     28  C17 CHE B   04     22.859  68.974  12.585  0.00  0.00    +0.089 A 
ATOM     29  C18 CHE B   04     23.116  67.534  14.193  0.00  0.00    +0.030 A 
ATOM     30  C19 CHE B   04     23.371  66.180  15.829  0.00  0.00    +0.004 A 
ATOM     31  C20 CHE B   04     23.003  67.227  13.040  0.00  0.00    +0.020 A 
ATOM     32  C21 CHE B   04     22.502  69.311   9.555  0.00  0.00    +0.111 A 
ATOM     33  N3  CHE B   04     23.102  68.424  14.495  0.00  0.00    -0.253 NA
ENDBRANCH   4  28
TORSDOF 4
ENDMDL
