MODEL 1
REMARK VINA RESULT:      -6.9      0.000      0.000
REMARK  Name = dock_mp/CHEMBL4/CHEMBL401570.pdb
REMARK  7 active torsions:
REMARK  status: ('A' for Active; 'I' for Inactive)
REMARK    1  A    between atoms: C1_1  and  C2_2
REMARK    2  A    between atoms: C6_6  and  C7_7
REMARK    3  A    between atoms: C8_9  and  C9_10
REMARK    4  A    between atoms: C9_10  and  C10_11
REMARK    5  A    between atoms: C9_10  and  C11_12
REMARK    6  A    between atoms: C9_10  and  C12_13
REMARK    7  A    between atoms: C13_15  and  C14_16
REMARK                            x       y       z     vdW  Elec       q    Type
REMARK                         _______ _______ _______ _____ _____    ______ ____
ROOT
ATOM      1  C7  CHE B   05     24.002  69.618  12.957  0.00  0.00    +0.092 A 
ATOM      2  N1  CHE B   05     17.876  69.491   7.788  0.00  0.00    -0.340 N 
ATOM      3  C8  CHE B   05     22.246  69.210  11.994  0.00  0.00    +0.114 A 
ATOM      4  N2  CHE B   05     17.820  68.129   9.639  0.00  0.00    -0.231 NA
ATOM      5  C13 CHE B   05     23.453  68.697  13.762  0.00  0.00    +0.098 A 
ATOM      6  H7  CHE B   05     20.665  70.364   9.005  0.00  0.00    +0.167 HD
ENDROOT
BRANCH   5   7
ATOM      7  C14 CHE B   05     18.272  67.618  10.745  0.00  0.00    +0.005 A 
ATOM      8  C15 CHE B   05     21.365  68.092  13.238  0.00  0.00    +0.012 A 
ATOM      9  C16 CHE B   05     15.441  66.915   9.559  0.00  0.00    +0.030 A 
ATOM     10  C17 CHE B   05     17.134  66.844  12.264  0.00  0.00    +0.089 A 
ATOM     11  N3  CHE B   05     18.116  66.698  14.262  0.00  0.00    -0.252 NA
ATOM     12  C18 CHE B   05     19.071  66.533  16.298  0.00  0.00    +0.131 A 
ATOM     13  C19 CHE B   05     19.810  66.628  16.967  0.00  0.00    +0.131 A 
ATOM     14  N4  CHE B   05     18.833  66.778  14.961  0.00  0.00    -0.252 NA
ATOM     15  C20 CHE B   05     20.937  67.394  15.463  0.00  0.00    +0.090 A 
ATOM     16  C21 CHE B   05     17.661  67.203  11.560  0.00  0.00    +0.040 A 
ENDBRANCH   5   7
BRANCH   1  22
ATOM     17  C1  CHE B   05     22.715  72.328  10.545  0.00  0.00    +0.065 C 
ATOM     18  C2  CHE B   05     22.830  71.338  10.762  0.00  0.00    +0.039 A 
ATOM     19  C3  CHE B   05     22.406  70.806   9.970  0.00  0.00    +0.023 A 
ATOM     20  C4  CHE B   05     23.432  70.337  11.890  0.00  0.00    +0.004 A 
ATOM     21  C5  CHE B   05     20.306  67.990   6.044  0.00  0.00    +0.030 A 
ATOM     22  C6  CHE B   05     23.472  69.998  11.965  0.00  0.00    +0.090 A 
ATOM     23  N5  CHE B   05     19.704  68.991   4.916  0.00  0.00    -0.250 NA
ENDBRANCH   1  22
BRANCH   3  24
ATOM     24  C9  CHE B   05     22.291  69.285  11.928  0.00  0.00    +0.020 C 
ATOM     25  C10 CHE B   05     22.411  66.914  11.528  0.00  0.00    +0.018 C 
ATOM     26  C11 CHE B   05     23.026  69.233  10.737  0.00  0.00    +0.018 C 
ATOM     27  C12 CHE B   05     20.136  74.671  15.871  0.00  0.00    +0.018 C 
ENDBRANCH   3  24
TORSDOF 3
ENDMDL
MODEL 2
REMARK VINA RESULT:      -6.8      2.126      3.614
REMARK  Name = dock_mp/CHEMBL4/CHEMBL401570.pdb
REMARK  7 active torsions:
REMARK  status: ('A' for Active; 'I' for Inactive)
REMARK    1  A    between atoms: C1_1  and  C2_2
REMARK    2  A    between atoms: C6_6  and  C7_7
REMARK    3  A    between atoms: C8_9  and  C9_10
REMARK    4  A    between atoms: C9_10  and  C10_11
REMARK    5  A    between atoms: C9_10  and  C11_12
REMARK    6  A    between atoms: C9_10  and  C12_13
REMARK    7  A    between atoms: C13_15  and  C14_16
REMARK                            x       y       z     vdW  Elec       q    Type
REMARK                         _______ _______ _______ _____ _____    ______ ____
ROOT
ATOM      1  C7  CHE B   05     24.038  67.967  13.459  0.00  0.00    +0.092 A 
ATOM      2  N1  CHE B   05     20.005  67.186   6.575  0.00  0.00    -0.340 N 
ATOM      3  C8  CHE B   05     22.575  67.806  12.041  0.00  0.00    +0.114 A 
ATOM      4  N2  CHE B   05     18.843  67.410   8.546  0.00  0.00    -0.231 NA
ATOM      5  C13 CHE B   05     22.925  68.051  14.201  0.00  0.00    +0.098 A 
ATOM      6  H7  CHE B   05     22.515  67.403   8.492  0.00  0.00    +0.167 HD
ENDROOT
BRANCH   5   7
ATOM      7  C14 CHE B   05     18.711  67.556   9.831  0.00  0.00    +0.005 A 
ATOM      8  C15 CHE B   05     21.011  67.696  13.100  0.00  0.00    +0.012 A 
ATOM      9  C16 CHE B   05     16.263  67.181   7.884  0.00  0.00    +0.030 A 
ATOM     10  C17 CHE B   05     17.105  66.955  10.955  0.00  0.00    +0.089 A 
ATOM     11  N3  CHE B   05     17.461  66.727  13.146  0.00  0.00    -0.252 NA
ATOM     12  C18 CHE B   05     17.777  66.484  15.365  0.00  0.00    +0.131 A 
ATOM     13  C19 CHE B   05     18.303  66.501  16.216  0.00  0.00    +0.131 A 
ATOM     14  N4  CHE B   05     17.956  66.732  14.020  0.00  0.00    -0.252 NA
ATOM     15  C20 CHE B   05     19.893  67.096  15.103  0.00  0.00    +0.090 A 
ATOM     16  C21 CHE B   05     17.850  67.233  10.434  0.00  0.00    +0.040 A 
ENDBRANCH   5   7
BRANCH   1  22
ATOM     17  C1  CHE B   05     25.015  66.256  10.151  0.00  0.00    +0.065 C 
ATOM     18  C2  CHE B   05     24.494  66.988  10.633  0.00  0.00    +0.039 A 
ATOM     19  C3  CHE B   05     23.987  67.529   9.897  0.00  0.00    +0.023 A 
ATOM     20  C4  CHE B   05     24.192  67.582  12.115  0.00  0.00    +0.004 A 
ATOM     21  C5  CHE B   05     21.373  70.348   6.295  0.00  0.00    +0.030 A 
ATOM     22  C6  CHE B   05     24.013  67.833  12.280  0.00  0.00    +0.090 A 
ATOM     23  N5  CHE B   05     21.675  69.755   4.813  0.00  0.00    -0.250 NA
ENDBRANCH   1  22
BRANCH   3  24
ATOM     24  C9  CHE B   05     22.667  67.799  11.980  0.00  0.00    +0.020 C 
ATOM     25  C10 CHE B   05     21.069  69.591  11.800  0.00  0.00    +0.018 C 
ATOM     26  C11 CHE B   05     23.238  68.591  10.977  0.00  0.00    +0.018 C 
ATOM     27  C12 CHE B   05     24.738  61.796  14.959  0.00  0.00    +0.018 C 
ENDBRANCH   3  24
TORSDOF 3
ENDMDL
MODEL 3
REMARK VINA RESULT:      -6.6      3.206      7.915
REMARK  Name = dock_mp/CHEMBL4/CHEMBL401570.pdb
REMARK  7 active torsions:
REMARK  status: ('A' for Active; 'I' for Inactive)
REMARK    1  A    between atoms: C1_1  and  C2_2
REMARK    2  A    between atoms: C6_6  and  C7_7
REMARK    3  A    between atoms: C8_9  and  C9_10
REMARK    4  A    between atoms: C9_10  and  C10_11
REMARK    5  A    between atoms: C9_10  and  C11_12
REMARK    6  A    between atoms: C9_10  and  C12_13
REMARK    7  A    between atoms: C13_15  and  C14_16
REMARK                            x       y       z     vdW  Elec       q    Type
REMARK                         _______ _______ _______ _____ _____    ______ ____
ROOT
ATOM      1  C7  CHE B   05     25.456  69.271   8.975  0.00  0.00    +0.092 A 
ATOM      2  N1  CHE B   05     18.068  66.185   9.374  0.00  0.00    -0.340 N 
ATOM      3  C8  CHE B   05     23.525  68.727   8.584  0.00  0.00    +0.114 A 
ATOM      4  N2  CHE B   05     18.684  67.406   7.526  0.00  0.00    -0.231 NA
ATOM      5  C13 CHE B   05     25.250  69.829   7.774  0.00  0.00    +0.098 A 
ATOM      6  H7  CHE B   05     21.022  66.843  10.301  0.00  0.00    +0.167 HD
ENDROOT
BRANCH   5   7
ATOM      7  C14 CHE B   05     19.490  68.110   6.789  0.00  0.00    +0.005 A 
ATOM      8  C15 CHE B   05     23.293  69.352   6.804  0.00  0.00    +0.012 A 
ATOM      9  C16 CHE B   05     16.585  67.315   5.868  0.00  0.00    +0.030 A 
ATOM     10  C17 CHE B   05     19.372  68.413   4.765  0.00  0.00    +0.089 A 
ATOM     11  N3  CHE B   05     21.215  69.183   3.770  0.00  0.00    -0.252 NA
ATOM     12  C18 CHE B   05     23.055  69.961   2.726  0.00  0.00    +0.131 A 
ATOM     13  C19 CHE B   05     24.002  70.281   2.668  0.00  0.00    +0.131 A 
ATOM     14  N4  CHE B   05     22.160  69.509   3.673  0.00  0.00    -0.252 NA
ATOM     15  C20 CHE B   05     24.119  69.981   4.672  0.00  0.00    +0.090 A 
ATOM     16  C21 CHE B   05     19.427  68.273   5.703  0.00  0.00    +0.040 A 
ENDBRANCH   5   7
BRANCH   1  22
ATOM     17  C1  CHE B   05     24.132  66.195  10.875  0.00  0.00    +0.065 C 
ATOM     18  C2  CHE B   05     23.956  67.121  10.486  0.00  0.00    +0.039 A 
ATOM     19  C3  CHE B   05     22.959  67.349  10.693  0.00  0.00    +0.023 A 
ATOM     20  C4  CHE B   05     24.681  68.328   9.675  0.00  0.00    +0.004 A 
ATOM     21  C5  CHE B   05     17.944  68.634  11.670  0.00  0.00    +0.030 A 
ATOM     22  C6  CHE B   05     24.620  68.646   9.541  0.00  0.00    +0.090 A 
ATOM     23  N5  CHE B   05     17.219  67.428  12.481  0.00  0.00    -0.250 NA
ENDBRANCH   1  22
BRANCH   3  24
ATOM     24  C9  CHE B   05     23.542  68.682   8.683  0.00  0.00    +0.020 C 
ATOM     25  C10 CHE B   05     22.084  70.561   8.309  0.00  0.00    +0.018 C 
ATOM     26  C11 CHE B   05     23.066  68.935   9.975  0.00  0.00    +0.018 C 
ATOM     27  C12 CHE B   05     27.994  63.869   6.189  0.00  0.00    +0.018 C 
ENDBRANCH   3  24
TORSDOF 3
ENDMDL
MODEL 4
REMARK VINA RESULT:      -6.4      3.373      5.699
REMARK  Name = dock_mp/CHEMBL4/CHEMBL401570.pdb
REMARK  7 active torsions:
REMARK  status: ('A' for Active; 'I' for Inactive)
REMARK    1  A    between atoms: C1_1  and  C2_2
REMARK    2  A    between atoms: C6_6  and  C7_7
REMARK    3  A    between atoms: C8_9  and  C9_10
REMARK    4  A    between atoms: C9_10  and  C10_11
REMARK    5  A    between atoms: C9_10  and  C11_12
REMARK    6  A    between atoms: C9_10  and  C12_13
REMARK    7  A    between atoms: C13_15  and  C14_16
REMARK                            x       y       z     vdW  Elec       q    Type
REMARK                         _______ _______ _______ _____ _____    ______ ____
ROOT
ATOM      1  C7  CHE B   05     22.655  71.093  10.756  0.00  0.00    +0.092 A 
ATOM      2  N1  CHE B   05     26.159  65.721  15.565  0.00  0.00    -0.340 N 
ATOM      3  C8  CHE B   05     23.057  69.476  11.940  0.00  0.00    +0.114 A 
ATOM      4  N2  CHE B   05     23.985  65.390  14.896  0.00  0.00    -0.231 NA
ATOM      5  C13 CHE B   05     21.495  70.423  10.711  0.00  0.00    +0.098 A 
ATOM      6  H7  CHE B   05     25.885  68.336  13.802  0.00  0.00    +0.167 HD
ENDROOT
BRANCH   5   7
ATOM      7  C14 CHE B   05     22.884  65.678  14.269  0.00  0.00    +0.005 A 
ATOM      8  C15 CHE B   05     21.364  68.677  12.101  0.00  0.00    +0.012 A 
ATOM      9  C16 CHE B   05     23.180  63.196  16.185  0.00  0.00    +0.030 A 
ATOM     10  C17 CHE B   05     21.008  65.160  14.915  0.00  0.00    +0.089 A 
ATOM     11  N3  CHE B   05     19.320  66.402  14.150  0.00  0.00    -0.252 NA
ATOM     12  C18 CHE B   05     17.585  67.632  13.401  0.00  0.00    +0.131 A 
ATOM     13  C19 CHE B   05     17.148  68.366  12.879  0.00  0.00    +0.131 A 
ATOM     14  N4  CHE B   05     18.846  67.126  13.640  0.00  0.00    -0.252 NA
ATOM     15  C20 CHE B   05     19.005  68.880  12.240  0.00  0.00    +0.090 A 
ATOM     16  C21 CHE B   05     21.878  65.400  14.616  0.00  0.00    +0.040 A 
ENDBRANCH   5   7
BRANCH   1  22
ATOM     17  C1  CHE B   05     25.523  71.497  13.293  0.00  0.00    +0.065 C 
ATOM     18  C2  CHE B   05     25.018  70.903  12.635  0.00  0.00    +0.039 A 
ATOM     19  C3  CHE B   05     25.490  69.972  12.650  0.00  0.00    +0.023 A 
ATOM     20  C4  CHE B   05     23.765  70.913  11.602  0.00  0.00    +0.004 A 
ATOM     21  C5  CHE B   05     27.770  65.222  12.619  0.00  0.00    +0.030 A 
ATOM     22  C6  CHE B   05     23.592  70.709  11.376  0.00  0.00    +0.090 A 
ATOM     23  N5  CHE B   05     29.024  65.212  13.652  0.00  0.00    -0.250 NA
ENDBRANCH   1  22
BRANCH   3  24
ATOM     24  C9  CHE B   05     23.153  69.531  11.943  0.00  0.00    +0.020 C 
ATOM     25  C10 CHE B   05     22.838  67.477  10.727  0.00  0.00    +0.018 C 
ATOM     26  C11 CHE B   05     24.423  69.329  11.391  0.00  0.00    +0.018 C 
ATOM     27  C12 CHE B   05     20.585  74.600  16.056  0.00  0.00    +0.018 C 
ENDBRANCH   3  24
TORSDOF 3
ENDMDL
MODEL 5
REMARK VINA RESULT:      -6.4      4.036      8.179
REMARK  Name = dock_mp/CHEMBL4/CHEMBL401570.pdb
REMARK  7 active torsions:
REMARK  status: ('A' for Active; 'I' for Inactive)
REMARK    1  A    between atoms: C1_1  and  C2_2
REMARK    2  A    between atoms: C6_6  and  C7_7
REMARK    3  A    between atoms: C8_9  and  C9_10
REMARK    4  A    between atoms: C9_10  and  C10_11
REMARK    5  A    between atoms: C9_10  and  C11_12
REMARK    6  A    between atoms: C9_10  and  C12_13
REMARK    7  A    between atoms: C13_15  and  C14_16
REMARK                            x       y       z     vdW  Elec       q    Type
REMARK                         _______ _______ _______ _____ _____    ______ ____
ROOT
ATOM      1  C7  CHE B   05     22.151  70.787   9.863  0.00  0.00    +0.092 A 
ATOM      2  N1  CHE B   05     23.042  64.368  14.581  0.00  0.00    -0.340 N 
ATOM      3  C8  CHE B   05     22.817  69.067  10.743  0.00  0.00    +0.114 A 
ATOM      4  N2  CHE B   05     24.555  64.748  12.893  0.00  0.00    -0.231 NA
ATOM      5  C13 CHE B   05     23.236  70.505   9.129  0.00  0.00    +0.098 A 
ATOM      6  H7  CHE B   05     21.735  67.028  13.470  0.00  0.00    +0.167 HD
ENDROOT
BRANCH   5   7
ATOM      7  C14 CHE B   05     25.064  65.389  11.883  0.00  0.00    +0.005 A 
ATOM      8  C15 CHE B   05     24.230  68.555   9.584  0.00  0.00    +0.012 A 
ATOM      9  C16 CHE B   05     26.236  62.667  12.951  0.00  0.00    +0.030 A 
ATOM     10  C17 CHE B   05     26.279  64.617  10.424  0.00  0.00    +0.089 A 
ATOM     11  N3  CHE B   05     26.464  65.817   8.552  0.00  0.00    -0.252 NA
ATOM     12  C18 CHE B   05     26.678  66.999   6.644  0.00  0.00    +0.131 A 
ATOM     13  C19 CHE B   05     26.507  67.767   6.025  0.00  0.00    +0.131 A 
ATOM     14  N4  CHE B   05     26.316  66.570   7.904  0.00  0.00    -0.252 NA
ATOM     15  C20 CHE B   05     25.304  68.531   7.470  0.00  0.00    +0.090 A 
ATOM     16  C21 CHE B   05     25.716  64.974  11.100  0.00  0.00    +0.040 A 
ENDBRANCH   5   7
BRANCH   1  22
ATOM     17  C1  CHE B   05     19.564  68.722  11.829  0.00  0.00    +0.065 C 
ATOM     18  C2  CHE B   05     20.516  69.079  11.750  0.00  0.00    +0.039 A 
ATOM     19  C3  CHE B   05     21.038  68.727  12.583  0.00  0.00    +0.023 A 
ATOM     20  C4  CHE B   05     21.469  69.984  10.795  0.00  0.00    +0.004 A 
ATOM     21  C5  CHE B   05     23.799  67.023  16.734  0.00  0.00    +0.030 A 
ATOM     22  C6  CHE B   05     21.795  70.106  10.768  0.00  0.00    +0.090 A 
ATOM     23  N5  CHE B   05     22.846  66.118  17.688  0.00  0.00    -0.250 NA
ENDBRANCH   1  22
BRANCH   3  24
ATOM     24  C9  CHE B   05     22.728  69.090  10.803  0.00  0.00    +0.020 C 
ATOM     25  C10 CHE B   05     24.978  69.165  11.655  0.00  0.00    +0.018 C 
ATOM     26  C11 CHE B   05     22.517  69.475  12.132  0.00  0.00    +0.018 C 
ATOM     27  C12 CHE B   05     18.285  67.934   5.499  0.00  0.00    +0.018 C 
ENDBRANCH   3  24
TORSDOF 3
ENDMDL
MODEL 6
REMARK VINA RESULT:      -6.1      2.109      3.672
REMARK  Name = dock_mp/CHEMBL4/CHEMBL401570.pdb
REMARK  7 active torsions:
REMARK  status: ('A' for Active; 'I' for Inactive)
REMARK    1  A    between atoms: C1_1  and  C2_2
REMARK    2  A    between atoms: C6_6  and  C7_7
REMARK    3  A    between atoms: C8_9  and  C9_10
REMARK    4  A    between atoms: C9_10  and  C10_11
REMARK    5  A    between atoms: C9_10  and  C11_12
REMARK    6  A    between atoms: C9_10  and  C12_13
REMARK    7  A    between atoms: C13_15  and  C14_16
REMARK                            x       y       z     vdW  Elec       q    Type
REMARK                         _______ _______ _______ _____ _____    ______ ____
ROOT
ATOM      1  C7  CHE B   05     25.487  69.844  11.178  0.00  0.00    +0.092 A 
ATOM      2  N1  CHE B   05     19.287  67.184   6.847  0.00  0.00    -0.340 N 
ATOM      3  C8  CHE B   05     23.629  69.287  10.535  0.00  0.00    +0.114 A 
ATOM      4  N2  CHE B   05     18.933  67.911   8.999  0.00  0.00    -0.231 NA
ATOM      5  C13 CHE B   05     24.732  70.107  12.253  0.00  0.00    +0.098 A 
ATOM      6  H7  CHE B   05     22.288  67.946   7.507  0.00  0.00    +0.167 HD
ENDROOT
BRANCH   5   7
ATOM      7  C14 CHE B   05     19.277  68.394  10.156  0.00  0.00    +0.005 A 
ATOM      8  C15 CHE B   05     22.643  69.324  12.106  0.00  0.00    +0.012 A 
ATOM      9  C16 CHE B   05     16.368  67.395   9.476  0.00  0.00    +0.030 A 
ATOM     10  C17 CHE B   05     18.423  67.726  11.896  0.00  0.00    +0.089 A 
ATOM     11  N3  CHE B   05     19.684  67.860  13.732  0.00  0.00    -0.252 NA
ATOM     12  C18 CHE B   05     20.923  67.978  15.611  0.00  0.00    +0.131 A 
ATOM     13  C19 CHE B   05     21.739  68.191  16.152  0.00  0.00    +0.131 A 
ATOM     14  N4  CHE B   05     20.482  68.059  14.307  0.00  0.00    -0.252 NA
ATOM     15  C20 CHE B   05     22.584  68.852  14.429  0.00  0.00    +0.090 A 
ATOM     16  C21 CHE B   05     18.819  68.035  11.089  0.00  0.00    +0.040 A 
ENDBRANCH   5   7
BRANCH   1  22
ATOM     17  C1  CHE B   05     25.425  67.407   8.198  0.00  0.00    +0.065 C 
ATOM     18  C2  CHE B   05     24.999  68.191   8.691  0.00  0.00    +0.039 A 
ATOM     19  C3  CHE B   05     24.156  68.468   8.142  0.00  0.00    +0.023 A 
ATOM     20  C4  CHE B   05     25.182  69.129  10.004  0.00  0.00    +0.004 A 
ATOM     21  C5  CHE B   05     19.872  69.978   5.472  0.00  0.00    +0.030 A 
ATOM     22  C6  CHE B   05     25.036  69.398  10.174  0.00  0.00    +0.090 A 
ATOM     23  N5  CHE B   05     19.689  69.040   4.158  0.00  0.00    -0.250 NA
ENDBRANCH   1  22
BRANCH   3  24
ATOM     24  C9  CHE B   05     23.691  69.265  10.446  0.00  0.00    +0.020 C 
ATOM     25  C10 CHE B   05     22.195  71.145  10.607  0.00  0.00    +0.018 C 
ATOM     26  C11 CHE B   05     23.872  69.881   9.202  0.00  0.00    +0.018 C 
ATOM     27  C12 CHE B   05     26.537  63.519  13.288  0.00  0.00    +0.018 C 
ENDBRANCH   3  24
TORSDOF 3
ENDMDL
MODEL 7
REMARK VINA RESULT:      -6.0      6.205      9.772
REMARK  Name = dock_mp/CHEMBL4/CHEMBL401570.pdb
REMARK  7 active torsions:
REMARK  status: ('A' for Active; 'I' for Inactive)
REMARK    1  A    between atoms: C1_1  and  C2_2
REMARK    2  A    between atoms: C6_6  and  C7_7
REMARK    3  A    between atoms: C8_9  and  C9_10
REMARK    4  A    between atoms: C9_10  and  C10_11
REMARK    5  A    between atoms: C9_10  and  C11_12
REMARK    6  A    between atoms: C9_10  and  C12_13
REMARK    7  A    between atoms: C13_15  and  C14_16
REMARK                            x       y       z     vdW  Elec       q    Type
REMARK                         _______ _______ _______ _____ _____    ______ ____
ROOT
ATOM      1  C7  CHE B   05     28.213  70.636   3.551  0.00  0.00    +0.092 A 
ATOM      2  N1  CHE B   05     24.596  71.106  10.689  0.00  0.00    -0.340 N 
ATOM      3  C8  CHE B   05     26.881  70.511   5.095  0.00  0.00    +0.114 A 
ATOM      4  N2  CHE B   05     23.479  70.159   8.917  0.00  0.00    -0.231 NA
ATOM      5  C13 CHE B   05     27.166  70.042   2.963  0.00  0.00    +0.098 A 
ATOM      6  H7  CHE B   05     26.892  71.461   8.539  0.00  0.00    +0.167 HD
ENDROOT
BRANCH   5   7
ATOM      7  C14 CHE B   05     23.332  69.761   7.689  0.00  0.00    +0.005 A 
ATOM      8  C15 CHE B   05     25.322  69.907   4.221  0.00  0.00    +0.012 A 
ATOM      9  C16 CHE B   05     21.037  69.592   9.839  0.00  0.00    +0.030 A 
ATOM     10  C17 CHE B   05     21.547  69.631   6.689  0.00  0.00    +0.089 A 
ATOM     11  N3  CHE B   05     21.659  69.640   4.460  0.00  0.00    -0.252 NA
ATOM     12  C18 CHE B   05     21.726  69.646   2.207  0.00  0.00    +0.131 A 
ATOM     13  C19 CHE B   05     22.169  69.678   1.309  0.00  0.00    +0.131 A 
ATOM     14  N4  CHE B   05     22.067  69.670   3.543  0.00  0.00    -0.252 NA
ATOM     15  C20 CHE B   05     23.937  69.807   2.300  0.00  0.00    +0.090 A 
ATOM     16  C21 CHE B   05     22.375  69.691   7.152  0.00  0.00    +0.040 A 
ENDBRANCH   5   7
BRANCH   1  22
ATOM     17  C1  CHE B   05     28.663  73.123   6.455  0.00  0.00    +0.065 C 
ATOM     18  C2  CHE B   05     28.433  72.180   6.144  0.00  0.00    +0.039 A 
ATOM     19  C3  CHE B   05     28.220  71.624   7.001  0.00  0.00    +0.023 A 
ATOM     20  C4  CHE B   05     28.291  71.274   4.803  0.00  0.00    +0.004 A 
ATOM     21  C5  CHE B   05     27.118  68.697  11.241  0.00  0.00    +0.030 A 
ATOM     22  C6  CHE B   05     28.212  70.950   4.696  0.00  0.00    +0.090 A 
ATOM     23  N5  CHE B   05     27.261  69.603  12.582  0.00  0.00    -0.250 NA
ENDBRANCH   1  22
BRANCH   3  24
ATOM     24  C9  CHE B   05     26.967  70.560   5.144  0.00  0.00    +0.020 C 
ATOM     25  C10 CHE B   05     26.538  68.193   5.243  0.00  0.00    +0.018 C 
ATOM     26  C11 CHE B   05     28.043  70.107   5.917  0.00  0.00    +0.018 C 
ATOM     27  C12 CHE B   05     25.153  76.966   2.937  0.00  0.00    +0.018 C 
ENDBRANCH   3  24
TORSDOF 3
ENDMDL
MODEL 8
REMARK VINA RESULT:      -5.9      2.361      3.170
REMARK  Name = dock_mp/CHEMBL4/CHEMBL401570.pdb
REMARK  7 active torsions:
REMARK  status: ('A' for Active; 'I' for Inactive)
REMARK    1  A    between atoms: C1_1  and  C2_2
REMARK    2  A    between atoms: C6_6  and  C7_7
REMARK    3  A    between atoms: C8_9  and  C9_10
REMARK    4  A    between atoms: C9_10  and  C10_11
REMARK    5  A    between atoms: C9_10  and  C11_12
REMARK    6  A    between atoms: C9_10  and  C12_13
REMARK    7  A    between atoms: C13_15  and  C14_16
REMARK                            x       y       z     vdW  Elec       q    Type
REMARK                         _______ _______ _______ _____ _____    ______ ____
ROOT
ATOM      1  C7  CHE B   05     24.043  68.412  15.016  0.00  0.00    +0.092 A 
ATOM      2  N1  CHE B   05     22.745  70.335   7.343  0.00  0.00    -0.340 N 
ATOM      3  C8  CHE B   05     23.261  68.595  13.137  0.00  0.00    +0.114 A 
ATOM      4  N2  CHE B   05     21.229  69.004   8.446  0.00  0.00    -0.231 NA
ATOM      5  C13 CHE B   05     22.922  67.683  15.112  0.00  0.00    +0.098 A 
ATOM      6  H7  CHE B   05     24.236  70.267  10.134  0.00  0.00    +0.167 HD
ENDROOT
BRANCH   5   7
ATOM      7  C14 CHE B   05     20.751  68.347   9.460  0.00  0.00    +0.005 A 
ATOM      8  C15 CHE B   05     21.570  67.778  13.334  0.00  0.00    +0.012 A 
ATOM      9  C16 CHE B   05     19.244  68.595   6.705  0.00  0.00    +0.030 A 
ATOM     10  C17 CHE B   05     18.768  67.949   9.794  0.00  0.00    +0.089 A 
ATOM     11  N3  CHE B   05     18.195  67.468  11.897  0.00  0.00    -0.252 NA
ATOM     12  C18 CHE B   05     17.575  66.977  14.008  0.00  0.00    +0.131 A 
ATOM     13  C19 CHE B   05     17.719  66.822  14.986  0.00  0.00    +0.131 A 
ATOM     14  N4  CHE B   05     18.301  67.306  12.882  0.00  0.00    -0.252 NA
ATOM     15  C20 CHE B   05     19.683  67.216  14.655  0.00  0.00    +0.090 A 
ATOM     16  C21 CHE B   05     19.687  68.134   9.640  0.00  0.00    +0.040 A 
ENDBRANCH   5   7
BRANCH   1  22
ATOM     17  C1  CHE B   05     25.132  71.477  12.957  0.00  0.00    +0.065 C 
ATOM     18  C2  CHE B   05     24.904  70.483  12.986  0.00  0.00    +0.039 A 
ATOM     19  C3  CHE B   05     25.013  70.121  12.013  0.00  0.00    +0.023 A 
ATOM     20  C4  CHE B   05     24.441  69.306  14.005  0.00  0.00    +0.004 A 
ATOM     21  C5  CHE B   05     25.523  68.155   7.152  0.00  0.00    +0.030 A 
ATOM     22  C6  CHE B   05     24.363  68.965  14.016  0.00  0.00    +0.090 A 
ATOM     23  N5  CHE B   05     25.986  69.332   6.133  0.00  0.00    -0.250 NA
ENDBRANCH   1  22
BRANCH   3  24
ATOM     24  C9  CHE B   05     23.353  68.655  13.129  0.00  0.00    +0.020 C 
ATOM     25  C10 CHE B   05     23.020  66.552  12.004  0.00  0.00    +0.018 C 
ATOM     26  C11 CHE B   05     24.566  68.500  12.448  0.00  0.00    +0.018 C 
ATOM     27  C12 CHE B   05     20.970  73.709  17.370  0.00  0.00    +0.018 C 
ENDBRANCH   3  24
TORSDOF 3
ENDMDL
MODEL 9
REMARK VINA RESULT:      -5.8      3.532      6.369
REMARK  Name = dock_mp/CHEMBL4/CHEMBL401570.pdb
REMARK  7 active torsions:
REMARK  status: ('A' for Active; 'I' for Inactive)
REMARK    1  A    between atoms: C1_1  and  C2_2
REMARK    2  A    between atoms: C6_6  and  C7_7
REMARK    3  A    between atoms: C8_9  and  C9_10
REMARK    4  A    between atoms: C9_10  and  C10_11
REMARK    5  A    between atoms: C9_10  and  C11_12
REMARK    6  A    between atoms: C9_10  and  C12_13
REMARK    7  A    between atoms: C13_15  and  C14_16
REMARK                            x       y       z     vdW  Elec       q    Type
REMARK                         _______ _______ _______ _____ _____    ______ ____
ROOT
ATOM      1  C7  CHE B   05     22.635  70.444   9.932  0.00  0.00    +0.092 A 
ATOM      2  N1  CHE B   05     26.052  64.001  13.260  0.00  0.00    -0.340 N 
ATOM      3  C8  CHE B   05     23.046  68.807  11.084  0.00  0.00    +0.114 A 
ATOM      4  N2  CHE B   05     24.000  64.709  14.017  0.00  0.00    -0.231 NA
ATOM      5  C13 CHE B   05     21.550  70.379  10.715  0.00  0.00    +0.098 A 
ATOM      6  H7  CHE B   05     25.744  66.475  11.310  0.00  0.00    +0.167 HD
ENDROOT
BRANCH   5   7
ATOM      7  C14 CHE B   05     22.952  65.478  14.049  0.00  0.00    +0.005 A 
ATOM      8  C15 CHE B   05     21.428  68.590  12.051  0.00  0.00    +0.012 A 
ATOM      9  C16 CHE B   05     23.259  62.923  15.866  0.00  0.00    +0.030 A 
ATOM     10  C17 CHE B   05     21.092  64.988  14.758  0.00  0.00    +0.089 A 
ATOM     11  N3  CHE B   05     19.409  66.303  14.110  0.00  0.00    -0.252 NA
ATOM     12  C18 CHE B   05     17.680  67.605  13.480  0.00  0.00    +0.131 A 
ATOM     13  C19 CHE B   05     17.242  68.368  13.002  0.00  0.00    +0.131 A 
ATOM     14  N4  CHE B   05     18.935  67.056  13.646  0.00  0.00    -0.252 NA
ATOM     15  C20 CHE B   05     19.084  68.852  12.300  0.00  0.00    +0.090 A 
ATOM     16  C21 CHE B   05     21.954  65.215  14.429  0.00  0.00    +0.040 A 
ENDBRANCH   5   7
BRANCH   1  22
ATOM     17  C1  CHE B   05     25.144  67.900   8.495  0.00  0.00    +0.065 C 
ATOM     18  C2  CHE B   05     24.778  68.402   9.305  0.00  0.00    +0.039 A 
ATOM     19  C3  CHE B   05     25.335  68.087  10.130  0.00  0.00    +0.023 A 
ATOM     20  C4  CHE B   05     23.655  69.494   9.733  0.00  0.00    +0.004 A 
ATOM     21  C5  CHE B   05     28.061  66.589  14.382  0.00  0.00    +0.030 A 
ATOM     22  C6  CHE B   05     23.529  69.666  10.011  0.00  0.00    +0.090 A 
ATOM     23  N5  CHE B   05     29.184  65.497  13.953  0.00  0.00    -0.250 NA
ENDBRANCH   1  22
BRANCH   3  24
ATOM     24  C9  CHE B   05     23.135  68.812  11.020  0.00  0.00    +0.020 C 
ATOM     25  C10 CHE B   05     23.194  69.061  13.414  0.00  0.00    +0.018 C 
ATOM     26  C11 CHE B   05     24.501  69.016  11.252  0.00  0.00    +0.018 C 
ATOM     27  C12 CHE B   05     19.497  67.736   5.120  0.00  0.00    +0.018 C 
ENDBRANCH   3  24
TORSDOF 3
ENDMDL
MODEL 10
REMARK VINA RESULT:      -5.8      4.442      6.677
REMARK  Name = dock_mp/CHEMBL4/CHEMBL401570.pdb
REMARK  7 active torsions:
REMARK  status: ('A' for Active; 'I' for Inactive)
REMARK    1  A    between atoms: C1_1  and  C2_2
REMARK    2  A    between atoms: C6_6  and  C7_7
REMARK    3  A    between atoms: C8_9  and  C9_10
REMARK    4  A    between atoms: C9_10  and  C10_11
REMARK    5  A    between atoms: C9_10  and  C11_12
REMARK    6  A    between atoms: C9_10  and  C12_13
REMARK    7  A    between atoms: C13_15  and  C14_16
REMARK                            x       y       z     vdW  Elec       q    Type
REMARK                         _______ _______ _______ _____ _____    ______ ____
ROOT
ATOM      1  C7  CHE B   05     21.358  70.311  10.507  0.00  0.00    +0.092 A 
ATOM      2  N1  CHE B   05     26.619  67.352   5.232  0.00  0.00    -0.340 N 
ATOM      3  C8  CHE B   05     22.856  69.259   9.599  0.00  0.00    +0.114 A 
ATOM      4  N2  CHE B   05     26.631  66.576   7.396  0.00  0.00    -0.231 NA
ATOM      5  C13 CHE B   05     21.805  69.546  11.512  0.00  0.00    +0.098 A 
ATOM      6  H7  CHE B   05     24.245  69.148   6.309  0.00  0.00    +0.167 HD
ENDROOT
BRANCH   5   7
ATOM      7  C14 CHE B   05     26.229  66.508   8.630  0.00  0.00    +0.005 A 
ATOM      8  C15 CHE B   05     23.393  68.063  10.985  0.00  0.00    +0.012 A 
ATOM      9  C16 CHE B   05     28.517  64.674   7.479  0.00  0.00    +0.030 A 
ATOM     10  C17 CHE B   05     26.586  65.024   9.997  0.00  0.00    +0.089 A 
ATOM     11  N3  CHE B   05     25.346  65.066  11.852  0.00  0.00    -0.252 NA
ATOM     12  C18 CHE B   05     24.113  65.071  13.739  0.00  0.00    +0.131 A 
ATOM     13  C19 CHE B   05     23.415  65.415  14.370  0.00  0.00    +0.131 A 
ATOM     14  N4  CHE B   05     24.654  65.380  12.509  0.00  0.00    -0.252 NA
ATOM     15  C20 CHE B   05     23.061  66.885  13.016  0.00  0.00    +0.090 A 
ATOM     16  C21 CHE B   05     26.421  65.712   9.364  0.00  0.00    +0.040 A 
ENDBRANCH   5   7
BRANCH   1  22
ATOM     17  C1  CHE B   05     21.165  69.979   6.676  0.00  0.00    +0.065 C 
ATOM     18  C2  CHE B   05     21.735  70.106   7.512  0.00  0.00    +0.039 A 
ATOM     19  C3  CHE B   05     22.726  70.183   7.191  0.00  0.00    +0.023 A 
ATOM     20  C4  CHE B   05     21.628  70.227   9.128  0.00  0.00    +0.004 A 
ATOM     21  C5  CHE B   05     27.768  70.586   5.718  0.00  0.00    +0.030 A 
ATOM     22  C6  CHE B   05     21.823  70.271   9.415  0.00  0.00    +0.090 A 
ATOM     23  N5  CHE B   05     27.876  70.465   4.102  0.00  0.00    -0.250 NA
ENDBRANCH   1  22
BRANCH   3  24
ATOM     24  C9  CHE B   05     22.819  69.322   9.516  0.00  0.00    +0.020 C 
ATOM     25  C10 CHE B   05     25.021  69.515  10.470  0.00  0.00    +0.018 C 
ATOM     26  C11 CHE B   05     23.369  70.360   8.755  0.00  0.00    +0.018 C 
ATOM     27  C12 CHE B   05     16.527  66.225   9.358  0.00  0.00    +0.018 C 
ENDBRANCH   3  24
TORSDOF 3
ENDMDL
