MODEL 1
REMARK VINA RESULT:     -10.9      0.000      0.000
REMARK  Name = dock_mp/CHEMBL4/CHEMBL409158.pdb
REMARK  5 active torsions:
REMARK  status: ('A' for Active; 'I' for Inactive)
REMARK    1  A    between atoms: C3_4  and  C4_5
REMARK    2  A    between atoms: C4_5  and  O2_6
REMARK    3  A    between atoms: O2_6  and  C5_7
REMARK    4  A    between atoms: C9_11  and  C10_12
REMARK    5  A    between atoms: C15_19  and  C16_20
REMARK                            x       y       z     vdW  Elec       q    Type
REMARK                         _______ _______ _______ _____ _____    ______ ____
ROOT
ATOM      1  C5  CHE B   01     26.942  69.155   1.442  0.00  0.00    +0.123 A 
ATOM      2  C6  CHE B   01     24.809  69.341   2.205  0.00  0.00    +0.046 A 
ATOM      3  C7  CHE B   01     23.173  69.292   2.104  0.00  0.00    +0.014 A 
ATOM      4  C8  CHE B   01     21.692  69.640   3.420  0.00  0.00    +0.008 A 
ATOM      5  C9  CHE B   01     20.063  69.594   3.325  0.00  0.00    -0.003 A 
ATOM      6  C21 CHE B   01     19.936  69.562   3.217  0.00  0.00    +0.029 A 
ATOM      7  C22 CHE B   01     24.715  68.602  -0.444  0.00  0.00    +0.112 A 
ATOM      8  N4  CHE B   01     21.021  70.189   5.421  0.00  0.00    -0.255 NA
ATOM      9  C23 CHE B   01     23.795  69.447   2.631  0.00  0.00    +0.075 A 
ATOM     10  C24 CHE B   01     22.770  70.266   5.617  0.00  0.00    +0.074 A 
ENDROOT
BRANCH   5  11
ATOM     11  C10 CHE B   01     19.186  69.376   2.582  0.00  0.00    +0.033 A 
ATOM     12  C11 CHE B   01     18.556  69.219   2.049  0.00  0.00    +0.048 A 
ATOM     13  C12 CHE B   01     15.994  66.748   5.562  0.00  0.00    +0.057 C 
ATOM     14  C13 CHE B   01     17.402  68.933   1.071  0.00  0.00    +0.029 C 
ATOM     15  C14 CHE B   01     13.709  65.446   5.901  0.00  0.00    +0.144 C 
ATOM     16  N1  CHE B   01     14.882  66.104   5.757  0.00  0.00    -0.267 N 
ATOM     17  N2  CHE B   01     17.964  69.072   1.547  0.00  0.00    -0.169 NA
ATOM     18  C15 CHE B   01     16.339  66.833   5.855  0.00  0.00    +0.119 A 
BRANCH  18  19
ATOM     19  C16 CHE B   01     17.694  67.904   4.728  0.00  0.00    +0.091 A 
ATOM     20  C17 CHE B   01     15.687  66.102   7.683  0.00  0.00    +0.030 A 
ATOM     21  C18 CHE B   01     17.035  67.169   6.550  0.00  0.00    +0.004 A 
ATOM     22  C19 CHE B   01     16.296  66.396   8.291  0.00  0.00    +0.020 A 
ATOM     23  C20 CHE B   01     18.289  68.191   5.324  0.00  0.00    +0.111 A 
ATOM     24  N3  CHE B   01     18.478  68.491   4.272  0.00  0.00    -0.253 NA
ENDBRANCH  18  19
ENDBRANCH   5  11
BRANCH   1  25
ATOM     25  O2  CHE B   01     26.601  69.786   3.723  0.00  0.00    -0.489 OA
BRANCH  25  26
ATOM     26  C4  CHE B   01     26.693  70.310   5.072  0.00  0.00    +0.260 C 
BRANCH  26  30
ATOM     27  C1  CHE B   01     28.130  72.438   6.714  0.00  0.00    +0.031 C 
ATOM     28  C2  CHE B   01     28.441  71.848   7.483  0.00  0.00    +0.160 C 
ATOM     29  O1  CHE B   01     26.474  72.465   3.848  0.00  0.00    -0.373 OA
ATOM     30  C3  CHE B   01     26.048  72.780   2.991  0.00  0.00    +0.156 C 
ATOM     31  C25 CHE B   01     25.770  73.450   2.249  0.00  0.00    +0.037 C 
ENDBRANCH  26  30
ENDBRANCH  25  26
ENDBRANCH   1  25
TORSDOF 5
ENDMDL
MODEL 2
REMARK VINA RESULT:     -10.8      4.071      6.017
REMARK  Name = dock_mp/CHEMBL4/CHEMBL409158.pdb
REMARK  5 active torsions:
REMARK  status: ('A' for Active; 'I' for Inactive)
REMARK    1  A    between atoms: C3_4  and  C4_5
REMARK    2  A    between atoms: C4_5  and  O2_6
REMARK    3  A    between atoms: O2_6  and  C5_7
REMARK    4  A    between atoms: C9_11  and  C10_12
REMARK    5  A    between atoms: C15_19  and  C16_20
REMARK                            x       y       z     vdW  Elec       q    Type
REMARK                         _______ _______ _______ _____ _____    ______ ____
ROOT
ATOM      1  C5  CHE B   01     21.394  69.658   1.483  0.00  0.00    +0.123 A 
ATOM      2  C6  CHE B   01     20.735  69.486   3.652  0.00  0.00    +0.046 A 
ATOM      3  C7  CHE B   01     19.668  69.286   4.881  0.00  0.00    +0.014 A 
ATOM      4  C8  CHE B   01     19.852  69.245   6.883  0.00  0.00    +0.008 A 
ATOM      5  C9  CHE B   01     18.795  69.047   8.111  0.00  0.00    -0.003 A 
ATOM      6  C21 CHE B   01     18.630  69.022   8.144  0.00  0.00    +0.029 A 
ATOM      7  C22 CHE B   01     18.513  69.212   2.051  0.00  0.00    +0.112 A 
ATOM      8  N4  CHE B   01     21.085  69.366   8.679  0.00  0.00    -0.255 NA
ATOM      9  C23 CHE B   01     20.473  69.411   4.723  0.00  0.00    +0.075 A 
ATOM     10  C24 CHE B   01     22.297  69.589   7.421  0.00  0.00    +0.074 A 
ENDROOT
BRANCH   5  11
ATOM     11  C10 CHE B   01     17.660  68.872   8.335  0.00  0.00    +0.033 A 
ATOM     12  C11 CHE B   01     16.846  68.746   8.495  0.00  0.00    +0.048 A 
ATOM     13  C12 CHE B   01     17.820  67.493  13.239  0.00  0.00    +0.057 C 
ATOM     14  C13 CHE B   01     15.352  68.515   8.790  0.00  0.00    +0.029 C 
ATOM     15  C14 CHE B   01     16.580  66.740  15.458  0.00  0.00    +0.144 C 
ATOM     16  N1  CHE B   01     17.239  67.123  14.341  0.00  0.00    -0.267 N 
ATOM     17  N2  CHE B   01     16.079  68.627   8.647  0.00  0.00    -0.169 NA
ATOM     18  C15 CHE B   01     18.266  67.562  13.151  0.00  0.00    +0.119 A 
BRANCH  18  19
ATOM     19  C16 CHE B   01     18.303  68.129  11.170  0.00  0.00    +0.091 A 
ATOM     20  C17 CHE B   01     19.250  67.126  14.925  0.00  0.00    +0.030 A 
ATOM     21  C18 CHE B   01     19.277  67.692  12.945  0.00  0.00    +0.004 A 
ATOM     22  C19 CHE B   01     20.135  67.240  14.744  0.00  0.00    +0.020 A 
ATOM     23  C20 CHE B   01     19.168  68.240  10.993  0.00  0.00    +0.111 A 
ATOM     24  N3  CHE B   01     18.477  68.433  10.147  0.00  0.00    -0.253 NA
ENDBRANCH  18  19
ENDBRANCH   5  11
BRANCH   1  25
ATOM     25  O2  CHE B   01     23.053  69.845   3.195  0.00  0.00    -0.489 OA
BRANCH  25  26
ATOM     26  C4  CHE B   01     24.255  69.814   4.005  0.00  0.00    +0.260 C 
BRANCH  26  30
ATOM     27  C1  CHE B   01     26.566  67.959   4.721  0.00  0.00    +0.031 C 
ATOM     28  C2  CHE B   01     26.510  68.036   5.735  0.00  0.00    +0.160 C 
ATOM     29  O1  CHE B   01     25.214  68.966   1.872  0.00  0.00    -0.373 OA
ATOM     30  C3  CHE B   01     25.031  69.084   0.889  0.00  0.00    +0.156 C 
ATOM     31  C25 CHE B   01     25.156  68.950  -0.134  0.00  0.00    +0.037 C 
ENDBRANCH  26  30
ENDBRANCH  25  26
ENDBRANCH   1  25
TORSDOF 5
ENDMDL
MODEL 3
REMARK VINA RESULT:     -10.7      6.232      9.626
REMARK  Name = dock_mp/CHEMBL4/CHEMBL409158.pdb
REMARK  5 active torsions:
REMARK  status: ('A' for Active; 'I' for Inactive)
REMARK    1  A    between atoms: C3_4  and  C4_5
REMARK    2  A    between atoms: C4_5  and  O2_6
REMARK    3  A    between atoms: O2_6  and  C5_7
REMARK    4  A    between atoms: C9_11  and  C10_12
REMARK    5  A    between atoms: C15_19  and  C16_20
REMARK                            x       y       z     vdW  Elec       q    Type
REMARK                         _______ _______ _______ _____ _____    ______ ____
ROOT
ATOM      1  C5  CHE B   01     16.790  67.556   5.535  0.00  0.00    +0.123 A 
ATOM      2  C6  CHE B   01     18.282  68.203   7.123  0.00  0.00    +0.046 A 
ATOM      3  C7  CHE B   01     18.893  68.335   8.639  0.00  0.00    +0.014 A 
ATOM      4  C8  CHE B   01     20.540  69.203   9.399  0.00  0.00    +0.008 A 
ATOM      5  C9  CHE B   01     21.153  69.337  10.906  0.00  0.00    -0.003 A 
ATOM      6  C21 CHE B   01     21.122  69.294  11.068  0.00  0.00    +0.029 A 
ATOM      7  C22 CHE B   01     16.262  66.802   8.359  0.00  0.00    +0.112 A 
ATOM      8  N4  CHE B   01     22.378  70.346   9.133  0.00  0.00    -0.255 NA
ATOM      9  C23 CHE B   01     19.041  68.545   7.850  0.00  0.00    +0.075 A 
ATOM     10  C24 CHE B   01     21.794  70.253   7.474  0.00  0.00    +0.074 A 
ENDROOT
BRANCH   5  11
ATOM     11  C10 CHE B   01     20.945  69.040  12.019  0.00  0.00    +0.033 A 
ATOM     12  C11 CHE B   01     20.796  68.827  12.817  0.00  0.00    +0.048 A 
ATOM     13  C12 CHE B   01     24.501  65.467  12.770  0.00  0.00    +0.057 C 
ATOM     14  C13 CHE B   01     20.522  68.436  14.282  0.00  0.00    +0.029 C 
ATOM     15  C14 CHE B   01     25.685  63.697  14.349  0.00  0.00    +0.144 C 
ATOM     16  N1  CHE B   01     25.100  64.592  13.522  0.00  0.00    -0.267 N 
ATOM     17  N2  CHE B   01     20.655  68.627  13.569  0.00  0.00    -0.169 NA
ATOM     18  C15 CHE B   01     24.583  65.584  12.333  0.00  0.00    +0.119 A 
BRANCH  18  19
ATOM     19  C16 CHE B   01     23.179  67.039  11.933  0.00  0.00    +0.091 A 
ATOM     20  C17 CHE B   01     26.130  64.347  11.716  0.00  0.00    +0.030 A 
ATOM     21  C18 CHE B   01     24.724  65.801  11.326  0.00  0.00    +0.004 A 
ATOM     22  C19 CHE B   01     26.253  64.537  10.834  0.00  0.00    +0.020 A 
ATOM     23  C20 CHE B   01     23.300  67.225  11.071  0.00  0.00    +0.111 A 
ATOM     24  N3  CHE B   01     22.499  67.801  11.579  0.00  0.00    -0.253 NA
ENDBRANCH  18  19
ENDBRANCH   5  11
BRANCH   1  25
ATOM     25  O2  CHE B   01     18.706  68.810   4.850  0.00  0.00    -0.489 OA
BRANCH  25  26
ATOM     26  C4  CHE B   01     19.858  69.369   4.170  0.00  0.00    +0.260 C 
BRANCH  26  30
ATOM     27  C1  CHE B   01     21.566  69.710   1.668  0.00  0.00    +0.031 C 
ATOM     28  C2  CHE B   01     22.475  69.793   2.118  0.00  0.00    +0.160 C 
ATOM     29  O1  CHE B   01     18.327  69.294   2.211  0.00  0.00    -0.373 OA
ATOM     30  C3  CHE B   01     17.337  69.184   2.059  0.00  0.00    +0.156 C 
ATOM     31  C25 CHE B   01     16.452  69.108   1.522  0.00  0.00    +0.037 C 
ENDBRANCH  26  30
ENDBRANCH  25  26
ENDBRANCH   1  25
TORSDOF 5
ENDMDL
MODEL 4
REMARK VINA RESULT:     -10.6      5.592     10.431
REMARK  Name = dock_mp/CHEMBL4/CHEMBL409158.pdb
REMARK  5 active torsions:
REMARK  status: ('A' for Active; 'I' for Inactive)
REMARK    1  A    between atoms: C3_4  and  C4_5
REMARK    2  A    between atoms: C4_5  and  O2_6
REMARK    3  A    between atoms: O2_6  and  C5_7
REMARK    4  A    between atoms: C9_11  and  C10_12
REMARK    5  A    between atoms: C15_19  and  C16_20
REMARK                            x       y       z     vdW  Elec       q    Type
REMARK                         _______ _______ _______ _____ _____    ______ ____
ROOT
ATOM      1  C5  CHE B   01     16.707  67.494   5.637  0.00  0.00    +0.123 A 
ATOM      2  C6  CHE B   01     18.278  68.210   7.116  0.00  0.00    +0.046 A 
ATOM      3  C7  CHE B   01     18.992  68.365   8.584  0.00  0.00    +0.014 A 
ATOM      4  C8  CHE B   01     20.644  69.313   9.229  0.00  0.00    +0.008 A 
ATOM      5  C9  CHE B   01     21.360  69.470  10.687  0.00  0.00    -0.003 A 
ATOM      6  C21 CHE B   01     21.344  69.425  10.850  0.00  0.00    +0.029 A 
ATOM      7  C22 CHE B   01     16.429  66.700   8.486  0.00  0.00    +0.112 A 
ATOM      8  N4  CHE B   01     22.398  70.550   8.837  0.00  0.00    -0.255 NA
ATOM      9  C23 CHE B   01     19.070  68.586   7.788  0.00  0.00    +0.075 A 
ATOM     10  C24 CHE B   01     21.697  70.435   7.225  0.00  0.00    +0.074 A 
ENDROOT
BRANCH   5  11
ATOM     11  C10 CHE B   01     21.250  69.157  11.809  0.00  0.00    +0.033 A 
ATOM     12  C11 CHE B   01     21.172  68.933  12.615  0.00  0.00    +0.048 A 
ATOM     13  C12 CHE B   01     25.770  70.590  13.682  0.00  0.00    +0.057 C 
ATOM     14  C13 CHE B   01     21.028  68.521  14.092  0.00  0.00    +0.029 C 
ATOM     15  C14 CHE B   01     27.452  70.803  15.719  0.00  0.00    +0.144 C 
ATOM     16  N1  CHE B   01     26.614  70.707  14.662  0.00  0.00    -0.267 N 
ATOM     17  N2  CHE B   01     21.098  68.721  13.373  0.00  0.00    -0.169 NA
ATOM     18  C15 CHE B   01     25.813  70.713  13.240  0.00  0.00    +0.119 A 
BRANCH  18  19
ATOM     19  C16 CHE B   01     24.015  70.168  12.392  0.00  0.00    +0.091 A 
ATOM     20  C17 CHE B   01     27.722  71.506  13.075  0.00  0.00    +0.030 A 
ATOM     21  C18 CHE B   01     25.923  70.959  12.236  0.00  0.00    +0.004 A 
ATOM     22  C19 CHE B   01     27.818  71.721  12.196  0.00  0.00    +0.020 A 
ATOM     23  C20 CHE B   01     24.109  70.378  11.532  0.00  0.00    +0.111 A 
ATOM     24  N3  CHE B   01     23.133  69.933  11.813  0.00  0.00    -0.253 NA
ENDBRANCH  18  19
ENDBRANCH   5  11
BRANCH   1  25
ATOM     25  O2  CHE B   01     18.501  68.849   4.824  0.00  0.00    -0.489 OA
BRANCH  25  26
ATOM     26  C4  CHE B   01     19.656  69.403   4.144  0.00  0.00    +0.260 C 
BRANCH  26  30
ATOM     27  C1  CHE B   01     21.358  69.740   1.637  0.00  0.00    +0.031 C 
ATOM     28  C2  CHE B   01     22.269  69.810   2.084  0.00  0.00    +0.160 C 
ATOM     29  O1  CHE B   01     18.116  69.359   2.191  0.00  0.00    -0.373 OA
ATOM     30  C3  CHE B   01     17.125  69.262   2.042  0.00  0.00    +0.156 C 
ATOM     31  C25 CHE B   01     16.236  69.201   1.507  0.00  0.00    +0.037 C 
ENDBRANCH  26  30
ENDBRANCH  25  26
ENDBRANCH   1  25
TORSDOF 5
ENDMDL
MODEL 5
REMARK VINA RESULT:     -10.5      6.153      8.640
REMARK  Name = dock_mp/CHEMBL4/CHEMBL409158.pdb
REMARK  5 active torsions:
REMARK  status: ('A' for Active; 'I' for Inactive)
REMARK    1  A    between atoms: C3_4  and  C4_5
REMARK    2  A    between atoms: C4_5  and  O2_6
REMARK    3  A    between atoms: O2_6  and  C5_7
REMARK    4  A    between atoms: C9_11  and  C10_12
REMARK    5  A    between atoms: C15_19  and  C16_20
REMARK                            x       y       z     vdW  Elec       q    Type
REMARK                         _______ _______ _______ _____ _____    ______ ____
ROOT
ATOM      1  C5  CHE B   01     25.900  69.727  14.689  0.00  0.00    +0.123 A 
ATOM      2  C6  CHE B   01     24.224  69.619  13.158  0.00  0.00    +0.046 A 
ATOM      3  C7  CHE B   01     23.528  69.799  11.684  0.00  0.00    +0.014 A 
ATOM      4  C8  CHE B   01     21.689  69.422  10.964  0.00  0.00    +0.008 A 
ATOM      5  C9  CHE B   01     20.991  69.600   9.498  0.00  0.00    -0.003 A 
ATOM      6  C21 CHE B   01     21.023  69.652   9.340  0.00  0.00    +0.029 A 
ATOM      7  C22 CHE B   01     26.457  70.643  11.920  0.00  0.00    +0.112 A 
ATOM      8  N4  CHE B   01     19.647  68.713  11.251  0.00  0.00    -0.255 NA
ATOM      9  C23 CHE B   01     23.372  69.543  12.458  0.00  0.00    +0.075 A 
ATOM     10  C24 CHE B   01     20.314  68.486  12.865  0.00  0.00    +0.074 A 
ENDROOT
BRANCH   5  11
ATOM     11  C10 CHE B   01     21.211  69.961   8.407  0.00  0.00    +0.033 A 
ATOM     12  C11 CHE B   01     21.369  70.220   7.624  0.00  0.00    +0.048 A 
ATOM     13  C12 CHE B   01     17.344  67.828   5.862  0.00  0.00    +0.057 C 
ATOM     14  C13 CHE B   01     21.658  70.695   6.188  0.00  0.00    +0.029 C 
ATOM     15  C14 CHE B   01     16.050  67.389   3.590  0.00  0.00    +0.144 C 
ATOM     16  N1  CHE B   01     16.690  67.596   4.763  0.00  0.00    -0.267 N 
ATOM     17  N2  CHE B   01     21.517  70.463   6.887  0.00  0.00    -0.169 NA
ATOM     18  C15 CHE B   01     17.258  67.686   6.291  0.00  0.00    +0.119 A 
BRANCH  18  19
ATOM     19  C16 CHE B   01     18.785  68.507   7.406  0.00  0.00    +0.091 A 
ATOM     20  C17 CHE B   01     15.582  66.474   6.139  0.00  0.00    +0.030 A 
ATOM     21  C18 CHE B   01     17.110  67.299   7.245  0.00  0.00    +0.004 A 
ATOM     22  C19 CHE B   01     15.452  66.135   6.973  0.00  0.00    +0.020 A 
ATOM     23  C20 CHE B   01     18.659  68.176   8.222  0.00  0.00    +0.111 A 
ATOM     24  N3  CHE B   01     19.526  68.858   8.110  0.00  0.00    -0.253 NA
ENDBRANCH  18  19
ENDBRANCH   5  11
BRANCH   1  25
ATOM     25  O2  CHE B   01     23.775  68.881  15.387  0.00  0.00    -0.489 OA
BRANCH  25  26
ATOM     26  C4  CHE B   01     22.592  68.461  16.111  0.00  0.00    +0.260 C 
BRANCH  26  30
ATOM     27  C1  CHE B   01     20.414  66.498  16.948  0.00  0.00    +0.031 C 
ATOM     28  C2  CHE B   01     20.024  67.031  17.723  0.00  0.00    +0.160 C 
ATOM     29  O1  CHE B   01     22.731  66.502  14.584  0.00  0.00    -0.373 OA
ATOM     30  C3  CHE B   01     23.302  66.222  13.802  0.00  0.00    +0.156 C 
ATOM     31  C25 CHE B   01     23.639  65.616  13.029  0.00  0.00    +0.037 C 
ENDBRANCH  26  30
ENDBRANCH  25  26
ENDBRANCH   1  25
TORSDOF 5
ENDMDL
MODEL 6
REMARK VINA RESULT:     -10.5      1.516      2.370
REMARK  Name = dock_mp/CHEMBL4/CHEMBL409158.pdb
REMARK  5 active torsions:
REMARK  status: ('A' for Active; 'I' for Inactive)
REMARK    1  A    between atoms: C3_4  and  C4_5
REMARK    2  A    between atoms: C4_5  and  O2_6
REMARK    3  A    between atoms: O2_6  and  C5_7
REMARK    4  A    between atoms: C9_11  and  C10_12
REMARK    5  A    between atoms: C15_19  and  C16_20
REMARK                            x       y       z     vdW  Elec       q    Type
REMARK                         _______ _______ _______ _____ _____    ______ ____
ROOT
ATOM      1  C5  CHE B   01     26.858  69.689   2.097  0.00  0.00    +0.123 A 
ATOM      2  C6  CHE B   01     24.688  69.668   2.773  0.00  0.00    +0.046 A 
ATOM      3  C7  CHE B   01     23.064  69.528   2.591  0.00  0.00    +0.014 A 
ATOM      4  C8  CHE B   01     21.510  69.655   3.862  0.00  0.00    +0.008 A 
ATOM      5  C9  CHE B   01     19.894  69.517   3.687  0.00  0.00    -0.003 A 
ATOM      6  C21 CHE B   01     19.773  69.488   3.571  0.00  0.00    +0.029 A 
ATOM      7  C22 CHE B   01     24.751  69.185   0.065  0.00  0.00    +0.112 A 
ATOM      8  N4  CHE B   01     20.723  69.965   5.872  0.00  0.00    -0.255 NA
ATOM      9  C23 CHE B   01     23.652  69.669   3.159  0.00  0.00    +0.075 A 
ATOM     10  C24 CHE B   01     22.454  70.130   6.157  0.00  0.00    +0.074 A 
ENDROOT
BRANCH   5  11
ATOM     11  C10 CHE B   01     19.064  69.319   2.886  0.00  0.00    +0.033 A 
ATOM     12  C11 CHE B   01     18.468  69.176   2.312  0.00  0.00    +0.048 A 
ATOM     13  C12 CHE B   01     15.723  66.572   5.584  0.00  0.00    +0.057 C 
ATOM     14  C13 CHE B   01     17.376  68.914   1.258  0.00  0.00    +0.029 C 
ATOM     15  C14 CHE B   01     13.434  65.245   5.743  0.00  0.00    +0.144 C 
ATOM     16  N1  CHE B   01     14.607  65.915   5.691  0.00  0.00    -0.267 N 
ATOM     17  N2  CHE B   01     17.908  69.042   1.771  0.00  0.00    -0.169 NA
ATOM     18  C15 CHE B   01     16.049  66.650   5.898  0.00  0.00    +0.119 A 
BRANCH  18  19
ATOM     19  C16 CHE B   01     17.459  67.766   4.891  0.00  0.00    +0.091 A 
ATOM     20  C17 CHE B   01     15.317  65.823   7.654  0.00  0.00    +0.030 A 
ATOM     21  C18 CHE B   01     16.721  66.936   6.639  0.00  0.00    +0.004 A 
ATOM     22  C19 CHE B   01     15.905  66.073   8.302  0.00  0.00    +0.020 A 
ATOM     23  C20 CHE B   01     18.034  68.011   5.524  0.00  0.00    +0.111 A 
ATOM     24  N3  CHE B   01     18.268  68.369   4.501  0.00  0.00    -0.253 NA
ENDBRANCH  18  19
ENDBRANCH   5  11
BRANCH   1  25
ATOM     25  O2  CHE B   01     26.382  70.074   4.408  0.00  0.00    -0.489 OA
BRANCH  25  26
ATOM     26  C4  CHE B   01     26.240  70.011   5.850  0.00  0.00    +0.260 C 
BRANCH  26  30
ATOM     27  C1  CHE B   01     25.585  67.947   7.996  0.00  0.00    +0.031 C 
ATOM     28  C2  CHE B   01     24.831  68.449   8.460  0.00  0.00    +0.160 C 
ATOM     29  O1  CHE B   01     27.784  68.087   5.525  0.00  0.00    -0.373 OA
ATOM     30  C3  CHE B   01     28.528  67.845   4.891  0.00  0.00    +0.156 C 
ATOM     31  C25 CHE B   01     29.286  67.267   4.477  0.00  0.00    +0.037 C 
ENDBRANCH  26  30
ENDBRANCH  25  26
ENDBRANCH   1  25
TORSDOF 5
ENDMDL
MODEL 7
REMARK VINA RESULT:     -10.3      6.575     10.089
REMARK  Name = dock_mp/CHEMBL4/CHEMBL409158.pdb
REMARK  5 active torsions:
REMARK  status: ('A' for Active; 'I' for Inactive)
REMARK    1  A    between atoms: C3_4  and  C4_5
REMARK    2  A    between atoms: C4_5  and  O2_6
REMARK    3  A    between atoms: O2_6  and  C5_7
REMARK    4  A    between atoms: C9_11  and  C10_12
REMARK    5  A    between atoms: C15_19  and  C16_20
REMARK                            x       y       z     vdW  Elec       q    Type
REMARK                         _______ _______ _______ _____ _____    ______ ____
ROOT
ATOM      1  C5  CHE B   01     16.376  67.358   4.964  0.00  0.00    +0.123 A 
ATOM      2  C6  CHE B   01     17.348  67.740   6.983  0.00  0.00    +0.046 A 
ATOM      3  C7  CHE B   01     17.489  67.667   8.615  0.00  0.00    +0.014 A 
ATOM      4  C8  CHE B   01     18.858  68.351   9.920  0.00  0.00    +0.008 A 
ATOM      5  C9  CHE B   01     19.003  68.281  11.544  0.00  0.00    -0.003 A 
ATOM      6  C21 CHE B   01     18.926  68.222  11.684  0.00  0.00    +0.029 A 
ATOM      7  C22 CHE B   01     15.025  66.326   7.399  0.00  0.00    +0.112 A 
ATOM      8  N4  CHE B   01     20.717  69.411  10.339  0.00  0.00    -0.255 NA
ATOM      9  C23 CHE B   01     17.867  67.955   7.934  0.00  0.00    +0.075 A 
ATOM     10  C24 CHE B   01     20.645  69.536   8.584  0.00  0.00    +0.074 A 
ENDROOT
BRANCH   5  11
ATOM     11  C10 CHE B   01     18.471  67.874  12.504  0.00  0.00    +0.033 A 
ATOM     12  C11 CHE B   01     18.089  67.582  13.192  0.00  0.00    +0.048 A 
ATOM     13  C12 CHE B   01     22.315  67.895  15.851  0.00  0.00    +0.057 C 
ATOM     14  C13 CHE B   01     17.389  67.047  14.455  0.00  0.00    +0.029 C 
ATOM     15  C14 CHE B   01     23.241  67.436  18.292  0.00  0.00    +0.144 C 
ATOM     16  N1  CHE B   01     22.796  67.679  17.039  0.00  0.00    -0.267 N 
ATOM     17  N2  CHE B   01     17.730  67.308  13.840  0.00  0.00    -0.169 NA
ATOM     18  C15 CHE B   01     22.524  68.055  15.474  0.00  0.00    +0.119 A 
BRANCH  18  19
ATOM     19  C16 CHE B   01     21.034  68.083  14.050  0.00  0.00    +0.091 A 
ATOM     20  C17 CHE B   01     24.497  68.370  16.031  0.00  0.00    +0.030 A 
ATOM     21  C18 CHE B   01     23.002  68.395  14.615  0.00  0.00    +0.004 A 
ATOM     22  C19 CHE B   01     24.916  68.667  15.280  0.00  0.00    +0.020 A 
ATOM     23  C20 CHE B   01     21.443  68.374  13.315  0.00  0.00    +0.111 A 
ATOM     24  N3  CHE B   01     20.362  68.149  13.205  0.00  0.00    -0.253 NA
ENDBRANCH  18  19
ENDBRANCH   5  11
BRANCH   1  25
ATOM     25  O2  CHE B   01     18.435  68.571   5.023  0.00  0.00    -0.489 OA
BRANCH  25  26
ATOM     26  C4  CHE B   01     19.673  69.266   4.728  0.00  0.00    +0.260 C 
BRANCH  26  30
ATOM     27  C1  CHE B   01     21.986  69.587   2.768  0.00  0.00    +0.031 C 
ATOM     28  C2  CHE B   01     22.748  69.627   3.443  0.00  0.00    +0.160 C 
ATOM     29  O1  CHE B   01     18.706  69.287   2.436  0.00  0.00    -0.373 OA
ATOM     30  C3  CHE B   01     17.788  69.219   2.028  0.00  0.00    +0.156 C 
ATOM     31  C25 CHE B   01     17.072  69.187   1.276  0.00  0.00    +0.037 C 
ENDBRANCH  26  30
ENDBRANCH  25  26
ENDBRANCH   1  25
TORSDOF 5
ENDMDL
MODEL 8
REMARK VINA RESULT:     -10.3      4.711     10.521
REMARK  Name = dock_mp/CHEMBL4/CHEMBL409158.pdb
REMARK  5 active torsions:
REMARK  status: ('A' for Active; 'I' for Inactive)
REMARK    1  A    between atoms: C3_4  and  C4_5
REMARK    2  A    between atoms: C4_5  and  O2_6
REMARK    3  A    between atoms: O2_6  and  C5_7
REMARK    4  A    between atoms: C9_11  and  C10_12
REMARK    5  A    between atoms: C15_19  and  C16_20
REMARK                            x       y       z     vdW  Elec       q    Type
REMARK                         _______ _______ _______ _____ _____    ______ ____
ROOT
ATOM      1  C5  CHE B   01     15.601  66.674   8.300  0.00  0.00    +0.123 A 
ATOM      2  C6  CHE B   01     17.538  67.863   8.245  0.00  0.00    +0.046 A 
ATOM      3  C7  CHE B   01     18.893  68.547   8.866  0.00  0.00    +0.014 A 
ATOM      4  C8  CHE B   01     20.386  69.633   8.070  0.00  0.00    +0.008 A 
ATOM      5  C9  CHE B   01     21.737  70.316   8.682  0.00  0.00    -0.003 A 
ATOM      6  C21 CHE B   01     21.823  70.336   8.827  0.00  0.00    +0.029 A 
ATOM      7  C22 CHE B   01     17.113  67.025  10.832  0.00  0.00    +0.112 A 
ATOM      8  N4  CHE B   01     21.330  70.591   6.353  0.00  0.00    -0.255 NA
ATOM      9  C23 CHE B   01     18.470  68.449   8.158  0.00  0.00    +0.075 A 
ATOM     10  C24 CHE B   01     19.898  69.889   5.604  0.00  0.00    +0.074 A 
ENDROOT
BRANCH   5  11
ATOM     11  C10 CHE B   01     22.332  70.454   9.679  0.00  0.00    +0.033 A 
ATOM     12  C11 CHE B   01     22.760  70.553  10.396  0.00  0.00    +0.048 A 
ATOM     13  C12 CHE B   01     26.895  68.596   8.373  0.00  0.00    +0.057 C 
ATOM     14  C13 CHE B   01     23.544  70.735  11.708  0.00  0.00    +0.029 C 
ATOM     15  C14 CHE B   01     29.405  68.011   8.996  0.00  0.00    +0.144 C 
ATOM     16  N1  CHE B   01     28.130  68.299   8.650  0.00  0.00    -0.267 N 
ATOM     17  N2  CHE B   01     23.162  70.646  11.069  0.00  0.00    -0.169 NA
ATOM     18  C15 CHE B   01     26.661  68.541   7.981  0.00  0.00    +0.119 A 
BRANCH  18  19
ATOM     19  C16 CHE B   01     24.783  69.272   8.415  0.00  0.00    +0.091 A 
ATOM     20  C17 CHE B   01     28.006  67.692   6.650  0.00  0.00    +0.030 A 
ATOM     21  C18 CHE B   01     26.133  68.424   7.092  0.00  0.00    +0.004 A 
ATOM     22  C19 CHE B   01     27.544  67.589   5.873  0.00  0.00    +0.020 A 
ATOM     23  C20 CHE B   01     24.331  69.172   7.654  0.00  0.00    +0.111 A 
ATOM     24  N3  CHE B   01     23.763  69.620   8.495  0.00  0.00    -0.253 NA
ENDBRANCH  18  19
ENDBRANCH   5  11
BRANCH   1  25
ATOM     25  O2  CHE B   01     16.321  67.580   6.208  0.00  0.00    -0.489 OA
BRANCH  25  26
ATOM     26  C4  CHE B   01     16.508  68.345   4.990  0.00  0.00    +0.260 C 
BRANCH  26  30
ATOM     27  C1  CHE B   01     16.819  68.611   1.969  0.00  0.00    +0.031 C 
ATOM     28  C2  CHE B   01     17.324  69.494   1.949  0.00  0.00    +0.160 C 
ATOM     29  O1  CHE B   01     15.428  66.357   3.955  0.00  0.00    -0.373 OA
ATOM     30  C3  CHE B   01     14.942  65.536   4.278  0.00  0.00    +0.156 C 
ATOM     31  C25 CHE B   01     14.431  64.634   4.210  0.00  0.00    +0.037 C 
ENDBRANCH  26  30
ENDBRANCH  25  26
ENDBRANCH   1  25
TORSDOF 5
ENDMDL
MODEL 9
REMARK VINA RESULT:     -10.1      6.745     10.097
REMARK  Name = dock_mp/CHEMBL4/CHEMBL409158.pdb
REMARK  5 active torsions:
REMARK  status: ('A' for Active; 'I' for Inactive)
REMARK    1  A    between atoms: C3_4  and  C4_5
REMARK    2  A    between atoms: C4_5  and  O2_6
REMARK    3  A    between atoms: O2_6  and  C5_7
REMARK    4  A    between atoms: C9_11  and  C10_12
REMARK    5  A    between atoms: C15_19  and  C16_20
REMARK                            x       y       z     vdW  Elec       q    Type
REMARK                         _______ _______ _______ _____ _____    ______ ____
ROOT
ATOM      1  C5  CHE B   01     20.152  69.163   3.709  0.00  0.00    +0.123 A 
ATOM      2  C6  CHE B   01     20.403  69.228   5.967  0.00  0.00    +0.046 A 
ATOM      3  C7  CHE B   01     21.167  69.560   7.380  0.00  0.00    +0.014 A 
ATOM      4  C8  CHE B   01     20.687  69.283   9.313  0.00  0.00    +0.008 A 
ATOM      5  C9  CHE B   01     21.443  69.611  10.722  0.00  0.00    -0.003 A 
ATOM      6  C21 CHE B   01     21.586  69.678  10.786  0.00  0.00    +0.029 A 
ATOM      7  C22 CHE B   01     22.646  70.332   4.818  0.00  0.00    +0.112 A 
ATOM      8  N4  CHE B   01     19.301  68.580  10.843  0.00  0.00    -0.255 NA
ATOM      9  C23 CHE B   01     20.470  69.233   7.070  0.00  0.00    +0.075 A 
ATOM     10  C24 CHE B   01     18.411  68.189   9.374  0.00  0.00    +0.074 A 
ENDROOT
BRANCH   5  11
ATOM     11  C10 CHE B   01     22.426  70.072  11.159  0.00  0.00    +0.033 A 
ATOM     12  C11 CHE B   01     23.131  70.402  11.473  0.00  0.00    +0.048 A 
ATOM     13  C12 CHE B   01     22.544  67.943  15.789  0.00  0.00    +0.057 C 
ATOM     14  C13 CHE B   01     24.425  71.009  12.048  0.00  0.00    +0.029 C 
ATOM     15  C14 CHE B   01     23.720  67.620  18.143  0.00  0.00    +0.144 C 
ATOM     16  N1  CHE B   01     23.099  67.766  16.951  0.00  0.00    -0.267 N 
ATOM     17  N2  CHE B   01     23.795  70.713  11.768  0.00  0.00    -0.169 NA
ATOM     18  C15 CHE B   01     22.158  67.762  15.617  0.00  0.00    +0.119 A 
BRANCH  18  19
ATOM     19  C16 CHE B   01     22.023  68.572  13.726  0.00  0.00    +0.091 A 
ATOM     20  C17 CHE B   01     21.405  66.545  17.119  0.00  0.00    +0.030 A 
ATOM     21  C18 CHE B   01     21.279  67.360  15.232  0.00  0.00    +0.004 A 
ATOM     22  C19 CHE B   01     20.636  66.194  16.783  0.00  0.00    +0.020 A 
ATOM     23  C20 CHE B   01     21.271  68.228  13.397  0.00  0.00    +0.111 A 
ATOM     24  N3  CHE B   01     21.820  68.916  12.722  0.00  0.00    -0.253 NA
ENDBRANCH  18  19
ENDBRANCH   5  11
BRANCH   1  25
ATOM     25  O2  CHE B   01     18.396  68.287   5.074  0.00  0.00    -0.489 OA
BRANCH  25  26
ATOM     26  C4  CHE B   01     17.200  67.665   5.610  0.00  0.00    +0.260 C 
BRANCH  26  30
ATOM     27  C1  CHE B   01     15.035  65.591   5.060  0.00  0.00    +0.031 C 
ATOM     28  C2  CHE B   01     15.043  65.124   5.965  0.00  0.00    +0.160 C 
ATOM     29  O1  CHE B   01     16.406  68.022   3.280  0.00  0.00    -0.373 OA
ATOM     30  C3  CHE B   01     16.618  68.651   2.522  0.00  0.00    +0.156 C 
ATOM     31  C25 CHE B   01     16.546  69.070   1.575  0.00  0.00    +0.037 C 
ENDBRANCH  26  30
ENDBRANCH  25  26
ENDBRANCH   1  25
TORSDOF 5
ENDMDL
MODEL 10
REMARK VINA RESULT:     -10.0      5.096      7.490
REMARK  Name = dock_mp/CHEMBL4/CHEMBL409158.pdb
REMARK  5 active torsions:
REMARK  status: ('A' for Active; 'I' for Inactive)
REMARK    1  A    between atoms: C3_4  and  C4_5
REMARK    2  A    between atoms: C4_5  and  O2_6
REMARK    3  A    between atoms: O2_6  and  C5_7
REMARK    4  A    between atoms: C9_11  and  C10_12
REMARK    5  A    between atoms: C15_19  and  C16_20
REMARK                            x       y       z     vdW  Elec       q    Type
REMARK                         _______ _______ _______ _____ _____    ______ ____
ROOT
ATOM      1  C5  CHE B   01     27.161  66.670  11.614  0.00  0.00    +0.123 A 
ATOM      2  C6  CHE B   01     25.092  67.598  11.448  0.00  0.00    +0.046 A 
ATOM      3  C7  CHE B   01     23.470  67.690  11.670  0.00  0.00    +0.014 A 
ATOM      4  C8  CHE B   01     22.075  69.044  11.155  0.00  0.00    +0.008 A 
ATOM      5  C9  CHE B   01     20.461  69.141  11.374  0.00  0.00    -0.003 A 
ATOM      6  C21 CHE B   01     20.329  69.058  11.442  0.00  0.00    +0.029 A 
ATOM      7  C22 CHE B   01     24.862  65.216  12.806  0.00  0.00    +0.112 A 
ATOM      8  N4  CHE B   01     21.517  70.927  10.207  0.00  0.00    -0.255 NA
ATOM      9  C23 CHE B   01     24.113  68.097  11.337  0.00  0.00    +0.075 A 
ATOM     10  C24 CHE B   01     23.255  70.909   9.924  0.00  0.00    +0.074 A 
ENDROOT
BRANCH   5  11
ATOM     11  C10 CHE B   01     19.555  68.569  11.843  0.00  0.00    +0.033 A 
ATOM     12  C11 CHE B   01     18.905  68.157  12.181  0.00  0.00    +0.048 A 
ATOM     13  C12 CHE B   01     16.931  67.273   7.670  0.00  0.00    +0.057 C 
ATOM     14  C13 CHE B   01     17.713  67.404  12.799  0.00  0.00    +0.029 C 
ATOM     15  C14 CHE B   01     14.841  66.097   6.541  0.00  0.00    +0.144 C 
ATOM     16  N1  CHE B   01     15.917  66.704   7.089  0.00  0.00    -0.267 N 
ATOM     17  N2  CHE B   01     18.293  67.771  12.498  0.00  0.00    -0.169 NA
ATOM     18  C15 CHE B   01     17.287  67.498   7.486  0.00  0.00    +0.119 A 
BRANCH  18  19
ATOM     19  C16 CHE B   01     18.417  68.067   9.113  0.00  0.00    +0.091 A 
ATOM     20  C17 CHE B   01     16.940  67.490   5.441  0.00  0.00    +0.030 A 
ATOM     21  C18 CHE B   01     18.063  68.054   7.072  0.00  0.00    +0.004 A 
ATOM     22  C19 CHE B   01     17.619  67.976   5.079  0.00  0.00    +0.020 A 
ATOM     23  C20 CHE B   01     19.081  68.543   8.759  0.00  0.00    +0.111 A 
ATOM     24  N3  CHE B   01     19.102  68.437   9.863  0.00  0.00    -0.253 NA
ENDBRANCH  18  19
ENDBRANCH   5  11
BRANCH   1  25
ATOM     25  O2  CHE B   01     26.942  68.768  10.488  0.00  0.00    -0.489 OA
BRANCH  25  26
ATOM     26  C4  CHE B   01     27.131  69.993   9.735  0.00  0.00    +0.260 C 
BRANCH  26  30
ATOM     27  C1  CHE B   01     28.054  72.894   9.571  0.00  0.00    +0.031 C 
ATOM     28  C2  CHE B   01     28.378  72.892   8.607  0.00  0.00    +0.160 C 
ATOM     29  O1  CHE B   01     26.697  71.035  11.952  0.00  0.00    -0.373 OA
ATOM     30  C3  CHE B   01     26.312  70.744  12.835  0.00  0.00    +0.156 C 
ATOM     31  C25 CHE B   01     26.005  70.830  13.824  0.00  0.00    +0.037 C 
ENDBRANCH  26  30
ENDBRANCH  25  26
ENDBRANCH   1  25
TORSDOF 5
ENDMDL
