MODEL 1
REMARK VINA RESULT:     -10.4      0.000      0.000
REMARK  Name = dock_mp/CHEMBL4/CHEMBL409525.pdb
REMARK  8 active torsions:
REMARK  status: ('A' for Active; 'I' for Inactive)
REMARK    1  A    between atoms: C1_1  and  N1_2
REMARK    2  A    between atoms: N1_2  and  C2_3
REMARK    3  A    between atoms: N1_2  and  C3_4
REMARK    4  A    between atoms: C3_4  and  C4_5
REMARK    5  A    between atoms: C4_5  and  O1_6
REMARK    6  A    between atoms: O1_6  and  C5_7
REMARK    7  A    between atoms: C9_11  and  C10_12
REMARK    8  A    between atoms: C15_19  and  C16_20
REMARK                            x       y       z     vdW  Elec       q    Type
REMARK                         _______ _______ _______ _____ _____    ______ ____
ROOT
ATOM      1  C5  CHE B   05     21.130  68.853   7.464  0.00  0.00    +0.122 A 
ATOM      2  C6  CHE B   05     15.944  66.882   9.837  0.00  0.00    +0.046 A 
ATOM      3  C7  CHE B   05     18.043  67.845  10.538  0.00  0.00    +0.014 A 
ATOM      4  C8  CHE B   05     24.431  70.424   9.128  0.00  0.00    +0.008 A 
ATOM      5  C9  CHE B   05     21.190  69.288  11.583  0.00  0.00    -0.003 A 
ATOM      6  C21 CHE B   05     23.130  70.120  11.645  0.00  0.00    +0.029 A 
ATOM      7  C22 CHE B   05     21.192  69.290  11.592  0.00  0.00    +0.112 A 
ATOM      8  N5  CHE B   05     19.096  68.329  10.902  0.00  0.00    -0.255 NA
ATOM      9  C23 CHE B   05     17.160  67.501  10.859  0.00  0.00    +0.075 A 
ATOM     10  C24 CHE B   05     23.073  69.687   7.536  0.00  0.00    +0.074 A 
ENDROOT
BRANCH   5  11
ATOM     11  C10 CHE B   05     17.809  68.038  13.476  0.00  0.00    +0.033 A 
ATOM     12  C11 CHE B   05     18.657  68.342  13.007  0.00  0.00    +0.048 A 
ATOM     13  C12 CHE B   05     22.005  69.677  11.071  0.00  0.00    +0.057 C 
ATOM     14  C13 CHE B   05     24.069  69.342  10.614  0.00  0.00    +0.029 C 
ATOM     15  C14 CHE B   05     18.919  67.668  13.351  0.00  0.00    +0.144 C 
ATOM     16  N2  CHE B   05     23.498  68.322  11.448  0.00  0.00    -0.267 N 
ATOM     17  N3  CHE B   05     24.657  67.827  11.387  0.00  0.00    -0.169 NA
ATOM     18  C15 CHE B   05     17.252  66.984  14.328  0.00  0.00    +0.119 A 
BRANCH  18  19
ATOM     19  C16 CHE B   05     18.342  66.666  14.176  0.00  0.00    +0.091 A 
ATOM     20  C17 CHE B   05     25.036  68.263  15.676  0.00  0.00    +0.030 A 
ATOM     21  C18 CHE B   05     18.278  66.926  14.350  0.00  0.00    +0.004 A 
ATOM     22  C19 CHE B   05     25.392  66.813  14.707  0.00  0.00    +0.020 A 
ATOM     23  C20 CHE B   05     22.608  65.782  13.832  0.00  0.00    +0.111 A 
ATOM     24  N4  CHE B   05     26.426  66.722  14.708  0.00  0.00    -0.253 NA
ENDBRANCH  18  19
ENDBRANCH   5  11
BRANCH   1  25
ATOM     25  O1  CHE B   05     18.142  67.541   7.056  0.00  0.00    -0.494 OA
BRANCH  25  26
ATOM     26  C4  CHE B   05     16.161  66.676   6.759  0.00  0.00    +0.210 C 
BRANCH  26  27
ATOM     27  C3  CHE B   05     19.233  68.310   4.333  0.00  0.00    -0.038 C 
BRANCH  27  29
ATOM     28  C1  CHE B   05     18.586  68.915   3.288  0.00  0.00    -0.096 C 
ATOM     29  N1  CHE B   05     21.432  69.558   2.464  0.00  0.00    +0.378 N 
ATOM     30  C2  CHE B   05     17.371  68.952   3.130  0.00  0.00    -0.096 C 
ATOM     31  H4  CHE B   05     17.212  67.998   4.681  0.00  0.00    -0.082 HD
ENDBRANCH  27  29
ENDBRANCH  26  27
ENDBRANCH  25  26
ENDBRANCH   1  25
TORSDOF 6
ENDMDL
MODEL 2
REMARK VINA RESULT:      -9.0      2.590      3.270
REMARK  Name = dock_mp/CHEMBL4/CHEMBL409525.pdb
REMARK  8 active torsions:
REMARK  status: ('A' for Active; 'I' for Inactive)
REMARK    1  A    between atoms: C1_1  and  N1_2
REMARK    2  A    between atoms: N1_2  and  C2_3
REMARK    3  A    between atoms: N1_2  and  C3_4
REMARK    4  A    between atoms: C3_4  and  C4_5
REMARK    5  A    between atoms: C4_5  and  O1_6
REMARK    6  A    between atoms: O1_6  and  C5_7
REMARK    7  A    between atoms: C9_11  and  C10_12
REMARK    8  A    between atoms: C15_19  and  C16_20
REMARK                            x       y       z     vdW  Elec       q    Type
REMARK                         _______ _______ _______ _____ _____    ______ ____
ROOT
ATOM      1  C5  CHE B   05     19.215  68.566   6.197  0.00  0.00    +0.122 A 
ATOM      2  C6  CHE B   05     16.458  67.054  11.349  0.00  0.00    +0.046 A 
ATOM      3  C7  CHE B   05     18.486  68.117  10.587  0.00  0.00    +0.014 A 
ATOM      4  C8  CHE B   05     22.713  70.391   5.448  0.00  0.00    +0.008 A 
ATOM      5  C9  CHE B   05     21.524  69.710   9.441  0.00  0.00    -0.003 A 
ATOM      6  C21 CHE B   05     23.077  70.534   8.271  0.00  0.00    +0.029 A 
ATOM      7  C22 CHE B   05     21.531  69.714   9.447  0.00  0.00    +0.112 A 
ATOM      8  N5  CHE B   05     19.510  68.654  10.215  0.00  0.00    -0.255 NA
ATOM      9  C23 CHE B   05     17.971  67.837  11.398  0.00  0.00    +0.075 A 
ATOM     10  C24 CHE B   05     20.776  69.393   5.033  0.00  0.00    +0.074 A 
ENDROOT
BRANCH   5  11
ATOM     11  C10 CHE B   05     19.917  68.819  13.074  0.00  0.00    +0.033 A 
ATOM     12  C11 CHE B   05     20.325  69.035  12.169  0.00  0.00    +0.048 A 
ATOM     13  C12 CHE B   05     21.868  69.996   8.504  0.00  0.00    +0.057 C 
ATOM     14  C13 CHE B   05     23.398  69.642   7.050  0.00  0.00    +0.029 C 
ATOM     15  C14 CHE B   05     20.834  68.473  12.424  0.00  0.00    +0.144 C 
ATOM     16  N2  CHE B   05     23.531  68.829   8.226  0.00  0.00    -0.267 N 
ATOM     17  N3  CHE B   05     24.544  68.378   7.624  0.00  0.00    -0.169 NA
ATOM     18  C15 CHE B   05     20.076  67.978  14.263  0.00  0.00    +0.119 A 
BRANCH  18  19
ATOM     19  C16 CHE B   05     20.955  67.675  13.594  0.00  0.00    +0.091 A 
ATOM     20  C17 CHE B   05     27.044  69.850  10.802  0.00  0.00    +0.030 A 
ATOM     21  C18 CHE B   05     20.951  67.967  13.723  0.00  0.00    +0.004 A 
ATOM     22  C19 CHE B   05     27.070  68.221  10.085  0.00  0.00    +0.020 A 
ATOM     23  C20 CHE B   05     24.466  66.899  11.110  0.00  0.00    +0.111 A 
ATOM     24  N4  CHE B   05     27.945  68.174   9.528  0.00  0.00    -0.253 NA
ENDBRANCH  18  19
ENDBRANCH   5  11
BRANCH   1  25
ATOM     25  O1  CHE B   05     16.651  67.212   7.752  0.00  0.00    -0.494 OA
BRANCH  25  26
ATOM     26  C4  CHE B   05     14.934  66.332   8.770  0.00  0.00    +0.210 C 
BRANCH  26  27
ATOM     27  C3  CHE B   05     15.812  67.850   4.908  0.00  0.00    -0.038 C 
BRANCH  27  29
ATOM     28  C1  CHE B   05     15.472  66.881   4.001  0.00  0.00    -0.096 C 
ATOM     29  N1  CHE B   05     16.564  68.931   2.053  0.00  0.00    +0.378 N 
ATOM     30  C2  CHE B   05     14.967  65.798   4.274  0.00  0.00    -0.096 C 
ATOM     31  H4  CHE B   05     15.019  66.297   6.032  0.00  0.00    -0.082 HD
ENDBRANCH  27  29
ENDBRANCH  26  27
ENDBRANCH  25  26
ENDBRANCH   1  25
TORSDOF 6
ENDMDL
MODEL 3
REMARK VINA RESULT:      -8.9      2.691      3.954
REMARK  Name = dock_mp/CHEMBL4/CHEMBL409525.pdb
REMARK  8 active torsions:
REMARK  status: ('A' for Active; 'I' for Inactive)
REMARK    1  A    between atoms: C1_1  and  N1_2
REMARK    2  A    between atoms: N1_2  and  C2_3
REMARK    3  A    between atoms: N1_2  and  C3_4
REMARK    4  A    between atoms: C3_4  and  C4_5
REMARK    5  A    between atoms: C4_5  and  O1_6
REMARK    6  A    between atoms: O1_6  and  C5_7
REMARK    7  A    between atoms: C9_11  and  C10_12
REMARK    8  A    between atoms: C15_19  and  C16_20
REMARK                            x       y       z     vdW  Elec       q    Type
REMARK                         _______ _______ _______ _____ _____    ______ ____
ROOT
ATOM      1  C5  CHE B   05     22.903  69.715   6.732  0.00  0.00    +0.122 A 
ATOM      2  C6  CHE B   05     17.244  68.245   5.236  0.00  0.00    +0.046 A 
ATOM      3  C7  CHE B   05     18.815  67.928   7.040  0.00  0.00    +0.014 A 
ATOM      4  C8  CHE B   05     25.130  68.907   9.975  0.00  0.00    +0.008 A 
ATOM      5  C9  CHE B   05     21.173  67.455   9.741  0.00  0.00    -0.003 A 
ATOM      6  C21 CHE B   05     22.878  67.483  10.987  0.00  0.00    +0.029 A 
ATOM      7  C22 CHE B   05     21.170  67.450   9.750  0.00  0.00    +0.112 A 
ATOM      8  N5  CHE B   05     19.597  67.761   7.954  0.00  0.00    -0.255 NA
ATOM      9  C23 CHE B   05     17.888  67.723   6.725  0.00  0.00    +0.075 A 
ATOM     10  C24 CHE B   05     24.607  69.738   7.986  0.00  0.00    +0.074 A 
ENDROOT
BRANCH   5  11
ATOM     11  C10 CHE B   05     17.334  66.306   9.016  0.00  0.00    +0.033 A 
ATOM     12  C11 CHE B   05     18.289  66.598   9.205  0.00  0.00    +0.048 A 
ATOM     13  C12 CHE B   05     22.175  67.701   9.855  0.00  0.00    +0.057 C 
ATOM     14  C13 CHE B   05     23.551  68.797  11.073  0.00  0.00    +0.029 C 
ATOM     15  C14 CHE B   05     17.908  66.964   9.806  0.00  0.00    +0.144 C 
ATOM     16  N2  CHE B   05     22.191  68.894  11.522  0.00  0.00    -0.267 N 
ATOM     17  N3  CHE B   05     22.693  69.621  12.424  0.00  0.00    -0.169 NA
ATOM     18  C15 CHE B   05     15.955  66.422   9.496  0.00  0.00    +0.119 A 
BRANCH  18  19
ATOM     19  C16 CHE B   05     16.557  67.053  10.240  0.00  0.00    +0.091 A 
ATOM     20  C17 CHE B   05     21.402  66.810  15.346  0.00  0.00    +0.030 A 
ATOM     21  C18 CHE B   05     16.600  66.736  10.233  0.00  0.00    +0.004 A 
ATOM     22  C19 CHE B   05     21.163  68.573  15.385  0.00  0.00    +0.020 A 
ATOM     23  C20 CHE B   05     19.030  69.099  13.205  0.00  0.00    +0.111 A 
ATOM     24  N4  CHE B   05     21.803  68.926  16.123  0.00  0.00    -0.253 NA
ENDBRANCH  18  19
ENDBRANCH   5  11
BRANCH   1  25
ATOM     25  O1  CHE B   05     20.411  69.842   4.588  0.00  0.00    -0.494 OA
BRANCH  25  26
ATOM     26  C4  CHE B   05     18.741  69.930   3.188  0.00  0.00    +0.210 C 
BRANCH  26  27
ATOM     27  C3  CHE B   05     22.957  70.356   3.023  0.00  0.00    -0.038 C 
BRANCH  27  29
ATOM     28  C1  CHE B   05     23.405  69.813   1.848  0.00  0.00    -0.096 C 
ATOM     29  N1  CHE B   05     26.070  70.780   2.919  0.00  0.00    +0.378 N 
ATOM     30  C2  CHE B   05     22.702  69.266   1.005  0.00  0.00    -0.096 C 
ATOM     31  H4  CHE B   05     21.267  69.607   2.083  0.00  0.00    -0.082 HD
ENDBRANCH  27  29
ENDBRANCH  26  27
ENDBRANCH  25  26
ENDBRANCH   1  25
TORSDOF 6
ENDMDL
MODEL 4
REMARK VINA RESULT:      -8.8      2.916      8.949
REMARK  Name = dock_mp/CHEMBL4/CHEMBL409525.pdb
REMARK  8 active torsions:
REMARK  status: ('A' for Active; 'I' for Inactive)
REMARK    1  A    between atoms: C1_1  and  N1_2
REMARK    2  A    between atoms: N1_2  and  C2_3
REMARK    3  A    between atoms: N1_2  and  C3_4
REMARK    4  A    between atoms: C3_4  and  C4_5
REMARK    5  A    between atoms: C4_5  and  O1_6
REMARK    6  A    between atoms: O1_6  and  C5_7
REMARK    7  A    between atoms: C9_11  and  C10_12
REMARK    8  A    between atoms: C15_19  and  C16_20
REMARK                            x       y       z     vdW  Elec       q    Type
REMARK                         _______ _______ _______ _____ _____    ______ ____
ROOT
ATOM      1  C5  CHE B   05     22.649  65.647  13.429  0.00  0.00    +0.122 A 
ATOM      2  C6  CHE B   05     25.472  67.539   8.441  0.00  0.00    +0.046 A 
ATOM      3  C7  CHE B   05     23.536  68.074   9.779  0.00  0.00    +0.014 A 
ATOM      4  C8  CHE B   05     19.336  66.930  15.302  0.00  0.00    +0.008 A 
ATOM      5  C9  CHE B   05     20.636  68.873  11.786  0.00  0.00    -0.003 A 
ATOM      6  C21 CHE B   05     19.126  68.910  13.263  0.00  0.00    +0.029 A 
ATOM      7  C22 CHE B   05     20.630  68.881  11.784  0.00  0.00    +0.112 A 
ATOM      8  N5  CHE B   05     22.559  68.353  10.445  0.00  0.00    -0.255 NA
ATOM      9  C23 CHE B   05     24.056  68.331   8.964  0.00  0.00    +0.075 A 
ATOM     10  C24 CHE B   05     21.133  65.691  14.903  0.00  0.00    +0.074 A 
ENDROOT
BRANCH   5  11
ATOM     11  C10 CHE B   05     22.310  70.378   8.394  0.00  0.00    +0.033 A 
ATOM     12  C11 CHE B   05     21.885  69.999   9.235  0.00  0.00    +0.048 A 
ATOM     13  C12 CHE B   05     20.278  68.522  12.696  0.00  0.00    +0.057 C 
ATOM     14  C13 CHE B   05     18.670  67.452  13.615  0.00  0.00    +0.029 C 
ATOM     15  C14 CHE B   05     21.344  69.776   8.690  0.00  0.00    +0.144 C 
ATOM     16  N2  CHE B   05     18.520  67.594  12.195  0.00  0.00    -0.267 N 
ATOM     17  N3  CHE B   05     17.452  66.950  12.389  0.00  0.00    -0.169 NA
ATOM     18  C15 CHE B   05     22.133  70.509   6.946  0.00  0.00    +0.119 A 
BRANCH  18  19
ATOM     19  C16 CHE B   05     21.207  69.923   7.283  0.00  0.00    +0.091 A 
ATOM     20  C17 CHE B   05     15.403  66.612   5.058  0.00  0.00    +0.030 A 
ATOM     21  C18 CHE B   05     21.254  69.977   6.971  0.00  0.00    +0.004 A 
ATOM     22  C19 CHE B   05     15.146  66.314   6.794  0.00  0.00    +0.020 A 
ATOM     23  C20 CHE B   05     17.573  67.662   8.163  0.00  0.00    +0.111 A 
ATOM     24  N4  CHE B   05     14.261  65.776   6.858  0.00  0.00    -0.253 NA
ENDBRANCH  18  19
ENDBRANCH   5  11
BRANCH   1  25
ATOM     25  O1  CHE B   05     25.124  65.346  11.282  0.00  0.00    -0.494 OA
BRANCH  25  26
ATOM     26  C4  CHE B   05     26.772  65.124   9.871  0.00  0.00    +0.210 C 
BRANCH  26  27
ATOM     27  C3  CHE B   05     26.191  66.784  13.730  0.00  0.00    -0.038 C 
BRANCH  27  29
ATOM     28  C1  CHE B   05     26.025  68.131  13.540  0.00  0.00    -0.096 C 
ATOM     29  N1  CHE B   05     25.834  68.095  16.565  0.00  0.00    +0.378 N 
ATOM     30  C2  CHE B   05     26.019  68.700  12.454  0.00  0.00    -0.096 C 
ATOM     31  H4  CHE B   05     26.286  67.067  11.677  0.00  0.00    -0.082 HD
ENDBRANCH  27  29
ENDBRANCH  26  27
ENDBRANCH  25  26
ENDBRANCH   1  25
TORSDOF 6
ENDMDL
MODEL 5
REMARK VINA RESULT:      -8.7      3.129      6.368
REMARK  Name = dock_mp/CHEMBL4/CHEMBL409525.pdb
REMARK  8 active torsions:
REMARK  status: ('A' for Active; 'I' for Inactive)
REMARK    1  A    between atoms: C1_1  and  N1_2
REMARK    2  A    between atoms: N1_2  and  C2_3
REMARK    3  A    between atoms: N1_2  and  C3_4
REMARK    4  A    between atoms: C3_4  and  C4_5
REMARK    5  A    between atoms: C4_5  and  O1_6
REMARK    6  A    between atoms: O1_6  and  C5_7
REMARK    7  A    between atoms: C9_11  and  C10_12
REMARK    8  A    between atoms: C15_19  and  C16_20
REMARK                            x       y       z     vdW  Elec       q    Type
REMARK                         _______ _______ _______ _____ _____    ______ ____
ROOT
ATOM      1  C5  CHE B   05     19.006  68.089   6.051  0.00  0.00    +0.122 A 
ATOM      2  C6  CHE B   05     19.804  68.774  11.994  0.00  0.00    +0.046 A 
ATOM      3  C7  CHE B   05     20.770  69.509   9.908  0.00  0.00    +0.014 A 
ATOM      4  C8  CHE B   05     20.961  69.587   2.879  0.00  0.00    +0.008 A 
ATOM      5  C9  CHE B   05     22.214  70.607   6.780  0.00  0.00    -0.003 A 
ATOM      6  C21 CHE B   05     22.653  70.929   4.739  0.00  0.00    +0.029 A 
ATOM      7  C22 CHE B   05     22.222  70.613   6.779  0.00  0.00    +0.112 A 
ATOM      8  N5  CHE B   05     21.264  69.885   8.864  0.00  0.00    -0.255 NA
ATOM      9  C23 CHE B   05     20.841  69.575  10.904  0.00  0.00    +0.075 A 
ATOM     10  C24 CHE B   05     19.452  68.418   4.010  0.00  0.00    +0.074 A 
ENDROOT
BRANCH   5  11
ATOM     11  C10 CHE B   05     23.003  71.264  10.720  0.00  0.00    +0.033 A 
ATOM     12  C11 CHE B   05     22.815  71.097   9.735  0.00  0.00    +0.048 A 
ATOM     13  C12 CHE B   05     21.931  70.470   5.790  0.00  0.00    +0.057 C 
ATOM     14  C13 CHE B   05     22.620  69.793   3.881  0.00  0.00    +0.029 C 
ATOM     15  C14 CHE B   05     23.576  70.852   9.778  0.00  0.00    +0.144 C 
ATOM     16  N2  CHE B   05     23.616  69.700   4.911  0.00  0.00    -0.267 N 
ATOM     17  N3  CHE B   05     24.331  69.242   3.977  0.00  0.00    -0.169 NA
ATOM     18  C15 CHE B   05     24.037  71.159  11.752  0.00  0.00    +0.119 A 
BRANCH  18  19
ATOM     19  C16 CHE B   05     24.553  70.766  10.807  0.00  0.00    +0.091 A 
ATOM     20  C17 CHE B   05     26.784  64.964   7.496  0.00  0.00    +0.030 A 
ATOM     21  C18 CHE B   05     24.459  70.558  11.032  0.00  0.00    +0.004 A 
ATOM     22  C19 CHE B   05     27.306  66.118   6.245  0.00  0.00    +0.020 A 
ATOM     23  C20 CHE B   05     26.475  68.880   7.365  0.00  0.00    +0.111 A 
ATOM     24  N4  CHE B   05     27.740  65.542   5.497  0.00  0.00    -0.253 NA
ENDBRANCH  18  19
ENDBRANCH   5  11
BRANCH   1  25
ATOM     25  O1  CHE B   05     18.088  67.403   9.135  0.00  0.00    -0.494 OA
BRANCH  25  26
ATOM     26  C4  CHE B   05     17.456  66.938  11.170  0.00  0.00    +0.210 C 
BRANCH  26  27
ATOM     27  C3  CHE B   05     15.923  66.427   7.249  0.00  0.00    -0.038 C 
BRANCH  27  29
ATOM     28  C1  CHE B   05     15.506  67.640   6.767  0.00  0.00    -0.096 C 
ATOM     29  N1  CHE B   05     14.757  65.945   4.369  0.00  0.00    +0.378 N 
ATOM     30  C2  CHE B   05     15.583  68.707   7.367  0.00  0.00    -0.096 C 
ATOM     31  H4  CHE B   05     16.342  67.790   8.755  0.00  0.00    -0.082 HD
ENDBRANCH  27  29
ENDBRANCH  26  27
ENDBRANCH  25  26
ENDBRANCH   1  25
TORSDOF 6
ENDMDL
MODEL 6
REMARK VINA RESULT:      -8.7      1.961      2.273
REMARK  Name = dock_mp/CHEMBL4/CHEMBL409525.pdb
REMARK  8 active torsions:
REMARK  status: ('A' for Active; 'I' for Inactive)
REMARK    1  A    between atoms: C1_1  and  N1_2
REMARK    2  A    between atoms: N1_2  and  C2_3
REMARK    3  A    between atoms: N1_2  and  C3_4
REMARK    4  A    between atoms: C3_4  and  C4_5
REMARK    5  A    between atoms: C4_5  and  O1_6
REMARK    6  A    between atoms: O1_6  and  C5_7
REMARK    7  A    between atoms: C9_11  and  C10_12
REMARK    8  A    between atoms: C15_19  and  C16_20
REMARK                            x       y       z     vdW  Elec       q    Type
REMARK                         _______ _______ _______ _____ _____    ______ ____
ROOT
ATOM      1  C5  CHE B   05     23.446  69.420   7.763  0.00  0.00    +0.122 A 
ATOM      2  C6  CHE B   05     17.618  67.955   8.324  0.00  0.00    +0.046 A 
ATOM      3  C7  CHE B   05     19.491  68.620   9.692  0.00  0.00    +0.014 A 
ATOM      4  C8  CHE B   05     26.227  70.490  10.456  0.00  0.00    +0.008 A 
ATOM      5  C9  CHE B   05     22.301  69.617  11.740  0.00  0.00    -0.003 A 
ATOM      6  C21 CHE B   05     24.204  70.206  12.443  0.00  0.00    +0.029 A 
ATOM      7  C22 CHE B   05     22.301  69.618  11.750  0.00  0.00    +0.112 A 
ATOM      8  N5  CHE B   05     20.427  68.954  10.391  0.00  0.00    -0.255 NA
ATOM      9  C23 CHE B   05     18.523  68.367   9.708  0.00  0.00    +0.075 A 
ATOM     10  C24 CHE B   05     25.348  70.011   8.477  0.00  0.00    +0.074 A 
ENDROOT
BRANCH   5  11
ATOM     11  C10 CHE B   05     18.401  68.677  12.438  0.00  0.00    +0.033 A 
ATOM     12  C11 CHE B   05     19.377  68.903  12.267  0.00  0.00    +0.048 A 
ATOM     13  C12 CHE B   05     23.267  69.933  11.528  0.00  0.00    +0.057 C 
ATOM     14  C13 CHE B   05     25.328  69.371  11.650  0.00  0.00    +0.029 C 
ATOM     15  C14 CHE B   05     19.455  68.178  12.598  0.00  0.00    +0.144 C 
ATOM     16  N2  CHE B   05     24.435  68.375  12.171  0.00  0.00    -0.267 N 
ATOM     17  N3  CHE B   05     25.503  67.740  12.392  0.00  0.00    -0.169 NA
ATOM     18  C15 CHE B   05     17.512  67.645  12.975  0.00  0.00    +0.119 A 
BRANCH  18  19
ATOM     19  C16 CHE B   05     18.560  67.200  13.110  0.00  0.00    +0.091 A 
ATOM     20  C17 CHE B   05     23.691  65.944  17.769  0.00  0.00    +0.030 A 
ATOM     21  C18 CHE B   05     18.410  67.327  13.363  0.00  0.00    +0.004 A 
ATOM     22  C19 CHE B   05     24.525  65.242  16.363  0.00  0.00    +0.020 A 
ATOM     23  C20 CHE B   05     22.526  65.613  14.030  0.00  0.00    +0.111 A 
ATOM     24  N4  CHE B   05     25.442  64.908  16.719  0.00  0.00    -0.253 NA
ENDBRANCH  18  19
ENDBRANCH   5  11
BRANCH   1  25
ATOM     25  O1  CHE B   05     20.606  68.499   6.381  0.00  0.00    -0.494 OA
BRANCH  25  26
ATOM     26  C4  CHE B   05     18.712  67.890   5.489  0.00  0.00    +0.210 C 
BRANCH  26  27
ATOM     27  C3  CHE B   05     22.321  69.694   4.183  0.00  0.00    -0.038 C 
BRANCH  27  29
ATOM     28  C1  CHE B   05     22.235  69.808   2.821  0.00  0.00    -0.096 C 
ATOM     29  N1  CHE B   05     25.027  70.934   3.171  0.00  0.00    +0.378 N 
ATOM     30  C2  CHE B   05     21.268  69.480   2.140  0.00  0.00    -0.096 C 
ATOM     31  H4  CHE B   05     20.443  68.965   3.688  0.00  0.00    -0.082 HD
ENDBRANCH  27  29
ENDBRANCH  26  27
ENDBRANCH  25  26
ENDBRANCH   1  25
TORSDOF 6
ENDMDL
MODEL 7
REMARK VINA RESULT:      -8.7      2.608      7.785
REMARK  Name = dock_mp/CHEMBL4/CHEMBL409525.pdb
REMARK  8 active torsions:
REMARK  status: ('A' for Active; 'I' for Inactive)
REMARK    1  A    between atoms: C1_1  and  N1_2
REMARK    2  A    between atoms: N1_2  and  C2_3
REMARK    3  A    between atoms: N1_2  and  C3_4
REMARK    4  A    between atoms: C3_4  and  C4_5
REMARK    5  A    between atoms: C4_5  and  O1_6
REMARK    6  A    between atoms: O1_6  and  C5_7
REMARK    7  A    between atoms: C9_11  and  C10_12
REMARK    8  A    between atoms: C15_19  and  C16_20
REMARK                            x       y       z     vdW  Elec       q    Type
REMARK                         _______ _______ _______ _____ _____    ______ ____
ROOT
ATOM      1  C5  CHE B   05     25.258  67.491  12.192  0.00  0.00    +0.122 A 
ATOM      2  C6  CHE B   05     20.383  65.427  15.089  0.00  0.00    +0.046 A 
ATOM      3  C7  CHE B   05     21.025  67.221  13.608  0.00  0.00    +0.014 A 
ATOM      4  C8  CHE B   05     25.817  70.637   9.759  0.00  0.00    +0.008 A 
ATOM      5  C9  CHE B   05     21.992  69.909  11.389  0.00  0.00    -0.003 A 
ATOM      6  C21 CHE B   05     23.054  71.230  10.129  0.00  0.00    +0.029 A 
ATOM      7  C22 CHE B   05     21.985  69.916  11.386  0.00  0.00    +0.112 A 
ATOM      8  N5  CHE B   05     21.337  68.129  12.863  0.00  0.00    -0.255 NA
ATOM      9  C23 CHE B   05     20.262  66.822  14.117  0.00  0.00    +0.075 A 
ATOM     10  C24 CHE B   05     26.315  68.819  10.928  0.00  0.00    +0.074 A 
ENDROOT
BRANCH   5  11
ATOM     11  C10 CHE B   05     18.536  68.764  13.214  0.00  0.00    +0.033 A 
ATOM     12  C11 CHE B   05     19.395  69.046  12.750  0.00  0.00    +0.048 A 
ATOM     13  C12 CHE B   05     22.900  70.232  11.003  0.00  0.00    +0.057 C 
ATOM     14  C13 CHE B   05     24.069  70.336   9.214  0.00  0.00    +0.029 C 
ATOM     15  C14 CHE B   05     19.004  68.717  12.135  0.00  0.00    +0.144 C 
ATOM     16  N2  CHE B   05     22.794  69.704   9.024  0.00  0.00    -0.267 N 
ATOM     17  N3  CHE B   05     23.188  69.596   7.830  0.00  0.00    -0.169 NA
ATOM     18  C15 CHE B   05     17.242  68.116  12.993  0.00  0.00    +0.119 A 
BRANCH  18  19
ATOM     19  C16 CHE B   05     17.738  68.093  11.960  0.00  0.00    +0.091 A 
ATOM     20  C17 CHE B   05     16.528  68.151   5.022  0.00  0.00    +0.030 A 
ATOM     21  C18 CHE B   05     17.419  68.108  11.980  0.00  0.00    +0.004 A 
ATOM     22  C19 CHE B   05     18.303  68.071   4.912  0.00  0.00    +0.020 A 
ATOM     23  C20 CHE B   05     19.246  68.027   7.859  0.00  0.00    +0.111 A 
ATOM     24  N4  CHE B   05     18.521  68.061   3.896  0.00  0.00    -0.253 NA
ENDBRANCH  18  19
ENDBRANCH   5  11
BRANCH   1  25
ATOM     25  O1  CHE B   05     23.871  65.276  14.191  0.00  0.00    -0.494 OA
BRANCH  25  26
ATOM     26  C4  CHE B   05     22.976  63.796  15.519  0.00  0.00    +0.210 C 
BRANCH  26  27
ATOM     27  C3  CHE B   05     25.628  67.087  15.874  0.00  0.00    -0.038 C 
BRANCH  27  29
ATOM     28  C1  CHE B   05     24.850  68.209  15.987  0.00  0.00    -0.096 C 
ATOM     29  N1  CHE B   05     27.561  69.539  16.242  0.00  0.00    +0.378 N 
ATOM     30  C2  CHE B   05     23.624  68.230  15.950  0.00  0.00    -0.096 C 
ATOM     31  H4  CHE B   05     23.671  66.417  15.726  0.00  0.00    -0.082 HD
ENDBRANCH  27  29
ENDBRANCH  26  27
ENDBRANCH  25  26
ENDBRANCH   1  25
TORSDOF 6
ENDMDL
MODEL 8
REMARK VINA RESULT:      -8.7      3.737      7.971
REMARK  Name = dock_mp/CHEMBL4/CHEMBL409525.pdb
REMARK  8 active torsions:
REMARK  status: ('A' for Active; 'I' for Inactive)
REMARK    1  A    between atoms: C1_1  and  N1_2
REMARK    2  A    between atoms: N1_2  and  C2_3
REMARK    3  A    between atoms: N1_2  and  C3_4
REMARK    4  A    between atoms: C3_4  and  C4_5
REMARK    5  A    between atoms: C4_5  and  O1_6
REMARK    6  A    between atoms: O1_6  and  C5_7
REMARK    7  A    between atoms: C9_11  and  C10_12
REMARK    8  A    between atoms: C15_19  and  C16_20
REMARK                            x       y       z     vdW  Elec       q    Type
REMARK                         _______ _______ _______ _____ _____    ______ ____
ROOT
ATOM      1  C5  CHE B   05     19.457  68.746   8.241  0.00  0.00    +0.122 A 
ATOM      2  C6  CHE B   05     19.936  69.227   2.244  0.00  0.00    +0.046 A 
ATOM      3  C7  CHE B   05     21.273  69.527   4.230  0.00  0.00    +0.014 A 
ATOM      4  C8  CHE B   05     22.080  69.385  11.214  0.00  0.00    +0.008 A 
ATOM      5  C9  CHE B   05     23.276  69.975   7.208  0.00  0.00    -0.003 A 
ATOM      6  C21 CHE B   05     23.973  70.078   9.200  0.00  0.00    +0.029 A 
ATOM      7  C22 CHE B   05     23.285  69.978   7.208  0.00  0.00    +0.112 A 
ATOM      8  N5  CHE B   05     21.957  69.681   5.223  0.00  0.00    -0.255 NA
ATOM      9  C23 CHE B   05     21.278  69.584   3.231  0.00  0.00    +0.075 A 
ATOM     10  C24 CHE B   05     20.164  68.852  10.232  0.00  0.00    +0.074 A 
ENDROOT
BRANCH   5  11
ATOM     11  C10 CHE B   05     23.907  70.391   3.208  0.00  0.00    +0.033 A 
ATOM     12  C11 CHE B   05     23.756  70.280   4.206  0.00  0.00    +0.048 A 
ATOM     13  C12 CHE B   05     23.056  69.935   8.223  0.00  0.00    +0.057 C 
ATOM     14  C13 CHE B   05     23.520  68.914  10.045  0.00  0.00    +0.029 C 
ATOM     15  C14 CHE B   05     24.303  69.710   4.081  0.00  0.00    +0.144 C 
ATOM     16  N2  CHE B   05     24.252  68.419   8.913  0.00  0.00    -0.267 N 
ATOM     17  N3  CHE B   05     24.750  67.631   9.764  0.00  0.00    -0.169 NA
ATOM     18  C15 CHE B   05     24.667  69.868   2.070  0.00  0.00    +0.119 A 
BRANCH  18  19
ATOM     19  C16 CHE B   05     25.022  69.229   2.953  0.00  0.00    +0.091 A 
ATOM     20  C17 CHE B   05     29.252  63.927   4.850  0.00  0.00    +0.030 A 
ATOM     21  C18 CHE B   05     25.140  69.173   2.661  0.00  0.00    +0.004 A 
ATOM     22  C19 CHE B   05     28.590  64.242   6.473  0.00  0.00    +0.020 A 
ATOM     23  C20 CHE B   05     26.619  66.589   6.047  0.00  0.00    +0.111 A 
ATOM     24  N4  CHE B   05     29.049  63.553   7.100  0.00  0.00    -0.253 NA
ENDBRANCH  18  19
ENDBRANCH   5  11
BRANCH   1  25
ATOM     25  O1  CHE B   05     18.095  68.495   5.257  0.00  0.00    -0.494 OA
BRANCH  25  26
ATOM     26  C4  CHE B   05     17.173  68.312   3.289  0.00  0.00    +0.210 C 
BRANCH  26  27
ATOM     27  C3  CHE B   05     16.370  66.971   7.232  0.00  0.00    -0.038 C 
BRANCH  27  29
ATOM     28  C1  CHE B   05     15.463  65.946   7.166  0.00  0.00    -0.096 C 
ATOM     29  N1  CHE B   05     15.743  66.079  10.180  0.00  0.00    +0.378 N 
ATOM     30  C2  CHE B   05     14.994  65.478   6.134  0.00  0.00    -0.096 C 
ATOM     31  H4  CHE B   05     16.009  66.685   5.209  0.00  0.00    -0.082 HD
ENDBRANCH  27  29
ENDBRANCH  26  27
ENDBRANCH  25  26
ENDBRANCH   1  25
TORSDOF 6
ENDMDL
MODEL 9
REMARK VINA RESULT:      -8.6      3.120      6.950
REMARK  Name = dock_mp/CHEMBL4/CHEMBL409525.pdb
REMARK  8 active torsions:
REMARK  status: ('A' for Active; 'I' for Inactive)
REMARK    1  A    between atoms: C1_1  and  N1_2
REMARK    2  A    between atoms: N1_2  and  C2_3
REMARK    3  A    between atoms: N1_2  and  C3_4
REMARK    4  A    between atoms: C3_4  and  C4_5
REMARK    5  A    between atoms: C4_5  and  O1_6
REMARK    6  A    between atoms: O1_6  and  C5_7
REMARK    7  A    between atoms: C9_11  and  C10_12
REMARK    8  A    between atoms: C15_19  and  C16_20
REMARK                            x       y       z     vdW  Elec       q    Type
REMARK                         _______ _______ _______ _____ _____    ______ ____
ROOT
ATOM      1  C5  CHE B   05     18.815  68.137   5.799  0.00  0.00    +0.122 A 
ATOM      2  C6  CHE B   05     19.678  68.731  11.742  0.00  0.00    +0.046 A 
ATOM      3  C7  CHE B   05     20.652  69.455   9.657  0.00  0.00    +0.014 A 
ATOM      4  C8  CHE B   05     20.796  69.604   2.628  0.00  0.00    +0.008 A 
ATOM      5  C9  CHE B   05     22.109  70.540   6.530  0.00  0.00    -0.003 A 
ATOM      6  C21 CHE B   05     22.544  70.870   4.489  0.00  0.00    +0.029 A 
ATOM      7  C22 CHE B   05     22.118  70.546   6.529  0.00  0.00    +0.112 A 
ATOM      8  N5  CHE B   05     21.151  69.827   8.614  0.00  0.00    -0.255 NA
ATOM      9  C23 CHE B   05     20.733  69.508  10.653  0.00  0.00    +0.075 A 
ATOM     10  C24 CHE B   05     19.258  68.473   3.758  0.00  0.00    +0.074 A 
ENDROOT
BRANCH   5  11
ATOM     11  C10 CHE B   05     22.948  71.128  10.470  0.00  0.00    +0.033 A 
ATOM     12  C11 CHE B   05     22.748  70.978   9.485  0.00  0.00    +0.048 A 
ATOM     13  C12 CHE B   05     21.814  70.421   5.541  0.00  0.00    +0.057 C 
ATOM     14  C13 CHE B   05     22.477  69.771   3.613  0.00  0.00    +0.029 C 
ATOM     15  C14 CHE B   05     23.507  70.728   9.515  0.00  0.00    +0.144 C 
ATOM     16  N2  CHE B   05     23.485  69.656   4.630  0.00  0.00    -0.267 N 
ATOM     17  N3  CHE B   05     24.186  69.210   3.681  0.00  0.00    -0.169 NA
ATOM     18  C15 CHE B   05     23.993  71.001  11.488  0.00  0.00    +0.119 A 
BRANCH  18  19
ATOM     19  C16 CHE B   05     24.495  70.620  10.531  0.00  0.00    +0.091 A 
ATOM     20  C17 CHE B   05     27.053  72.534   4.254  0.00  0.00    +0.030 A 
ATOM     21  C18 CHE B   05     24.430  70.931  10.560  0.00  0.00    +0.004 A 
ATOM     22  C19 CHE B   05     27.417  70.799   4.094  0.00  0.00    +0.020 A 
ATOM     23  C20 CHE B   05     26.407  69.563   6.746  0.00  0.00    +0.111 A 
ATOM     24  N4  CHE B   05     27.862  70.691   3.162  0.00  0.00    -0.253 NA
ENDBRANCH  18  19
ENDBRANCH   5  11
BRANCH   1  25
ATOM     25  O1  CHE B   05     17.898  67.447   8.882  0.00  0.00    -0.494 OA
BRANCH  25  26
ATOM     26  C4  CHE B   05     17.269  66.975  10.916  0.00  0.00    +0.210 C 
BRANCH  26  27
ATOM     27  C3  CHE B   05     15.834  66.290   6.984  0.00  0.00    -0.038 C 
BRANCH  27  29
ATOM     28  C1  CHE B   05     15.378  67.474   6.467  0.00  0.00    -0.096 C 
ATOM     29  N1  CHE B   05     14.861  65.721   4.050  0.00  0.00    +0.378 N 
ATOM     30  C2  CHE B   05     15.362  68.548   7.059  0.00  0.00    -0.096 C 
ATOM     31  H4  CHE B   05     16.091  67.686   8.496  0.00  0.00    -0.082 HD
ENDBRANCH  27  29
ENDBRANCH  26  27
ENDBRANCH  25  26
ENDBRANCH   1  25
TORSDOF 6
ENDMDL
MODEL 10
REMARK VINA RESULT:      -8.5      5.492     10.598
REMARK  Name = dock_mp/CHEMBL4/CHEMBL409525.pdb
REMARK  8 active torsions:
REMARK  status: ('A' for Active; 'I' for Inactive)
REMARK    1  A    between atoms: C1_1  and  N1_2
REMARK    2  A    between atoms: N1_2  and  C2_3
REMARK    3  A    between atoms: N1_2  and  C3_4
REMARK    4  A    between atoms: C3_4  and  C4_5
REMARK    5  A    between atoms: C4_5  and  O1_6
REMARK    6  A    between atoms: O1_6  and  C5_7
REMARK    7  A    between atoms: C9_11  and  C10_12
REMARK    8  A    between atoms: C15_19  and  C16_20
REMARK                            x       y       z     vdW  Elec       q    Type
REMARK                         _______ _______ _______ _____ _____    ______ ____
ROOT
ATOM      1  C5  CHE B   05     27.999  71.882   7.009  0.00  0.00    +0.122 A 
ATOM      2  C6  CHE B   05     25.342  73.603   1.871  0.00  0.00    +0.046 A 
ATOM      3  C7  CHE B   05     25.580  71.641   3.255  0.00  0.00    +0.014 A 
ATOM      4  C8  CHE B   05     28.089  68.368   8.951  0.00  0.00    +0.008 A 
ATOM      5  C9  CHE B   05     25.939  68.703   5.333  0.00  0.00    -0.003 A 
ATOM      6  C21 CHE B   05     26.454  67.335   6.858  0.00  0.00    +0.029 A 
ATOM      7  C22 CHE B   05     25.935  68.694   5.331  0.00  0.00    +0.112 A 
ATOM      8  N5  CHE B   05     25.693  70.647   3.945  0.00  0.00    -0.255 NA
ATOM      9  C23 CHE B   05     25.169  71.997   2.415  0.00  0.00    +0.075 A 
ATOM     10  C24 CHE B   05     28.510  70.505   8.532  0.00  0.00    +0.074 A 
ENDROOT
BRANCH   5  11
ATOM     11  C10 CHE B   05     24.033  69.561   1.839  0.00  0.00    +0.033 A 
ATOM     12  C11 CHE B   05     24.500  69.347   2.716  0.00  0.00    +0.048 A 
ATOM     13  C12 CHE B   05     26.500  68.477   6.178  0.00  0.00    +0.057 C 
ATOM     14  C13 CHE B   05     26.386  68.198   8.296  0.00  0.00    +0.029 C 
ATOM     15  C14 CHE B   05     23.751  69.453   2.977  0.00  0.00    +0.144 C 
ATOM     16  N2  CHE B   05     25.122  68.523   7.696  0.00  0.00    -0.267 N 
ATOM     17  N3  CHE B   05     24.700  68.434   8.882  0.00  0.00    -0.169 NA
ATOM     18  C15 CHE B   05     22.732  69.891   1.252  0.00  0.00    +0.119 A 
BRANCH  18  19
ATOM     19  C16 CHE B   05     22.507  69.775   2.370  0.00  0.00    +0.091 A 
ATOM     20  C17 CHE B   05     17.763  67.488   7.047  0.00  0.00    +0.030 A 
ATOM     21  C18 CHE B   05     22.291  69.674   2.156  0.00  0.00    +0.004 A 
ATOM     22  C19 CHE B   05     18.961  68.047   8.239  0.00  0.00    +0.020 A 
ATOM     23  C20 CHE B   05     21.281  69.161   6.519  0.00  0.00    +0.111 A 
ATOM     24  N4  CHE B   05     18.547  67.843   9.169  0.00  0.00    -0.253 NA
ENDBRANCH  18  19
ENDBRANCH   5  11
BRANCH   1  25
ATOM     25  O1  CHE B   05     27.363  74.227   4.791  0.00  0.00    -0.494 OA
BRANCH  25  26
ATOM     26  C4  CHE B   05     26.923  75.765   3.308  0.00  0.00    +0.210 C 
BRANCH  26  27
ATOM     27  C3  CHE B   05     28.257  75.622   7.331  0.00  0.00    -0.038 C 
BRANCH  27  29
ATOM     28  C1  CHE B   05     29.340  76.459   7.386  0.00  0.00    -0.096 C 
ATOM     29  N1  CHE B   05     29.315  75.599  10.292  0.00  0.00    +0.378 N 
ATOM     30  C2  CHE B   05     29.796  77.092   6.439  0.00  0.00    -0.096 C 
ATOM     31  H4  CHE B   05     28.482  76.356   5.404  0.00  0.00    -0.082 HD
ENDBRANCH  27  29
ENDBRANCH  26  27
ENDBRANCH  25  26
ENDBRANCH   1  25
TORSDOF 6
ENDMDL
