MODEL 1
REMARK VINA RESULT:     -13.1      0.000      0.000
REMARK  Name = dock_mp/CHEMBL4/CHEMBL436944.pdb
REMARK  4 active torsions:
REMARK  status: ('A' for Active; 'I' for Inactive)
REMARK    1  A    between atoms: C1_2  and  C6_9
REMARK    2  A    between atoms: C9_12  and  C10_13
REMARK    3  A    between atoms: C12_15  and  C13_16
REMARK    4  A    between atoms: C15_20  and  C16_21
REMARK                            x       y       z     vdW  Elec       q    Type
REMARK                         _______ _______ _______ _____ _____    ______ ____
ROOT
ATOM      1  C10 CHE B   09     19.394  69.593   3.839  0.00  0.00    +0.072 A 
ATOM      2  C11 CHE B   09     18.631  68.913   4.723  0.00  0.00    +0.037 A 
ATOM      3  C12 CHE B   09     17.585  68.806   1.644  0.00  0.00    -0.011 A 
ATOM      4  C21 CHE B   09     17.309  68.629   1.609  0.00  0.00    +0.028 A 
ATOM      5  C22 CHE B   09     18.070  69.119   1.706  0.00  0.00    +0.112 A 
ATOM      6  N5  CHE B   09     19.061  68.245   9.688  0.00  0.00    -0.255 NA
ENDROOT
BRANCH   1  10
ATOM      7  C6  CHE B   09     23.335  69.694   3.021  0.00  0.00    +0.037 A 
ATOM      8  C7  CHE B   09     22.552  69.735   1.985  0.00  0.00    +0.014 A 
ATOM      9  C8  CHE B   09     20.863  69.252  10.905  0.00  0.00    +0.011 A 
ATOM     10  C9  CHE B   09     20.485  69.350   8.888  0.00  0.00    +0.000 A 
ATOM     11  C23 CHE B   09     21.288  69.309   9.925  0.00  0.00    +0.011 A 
ATOM     12  C24 CHE B   09     22.886  69.688   3.001  0.00  0.00    +0.014 A 
BRANCH   7  14
ATOM     13  O1  CHE B   09     24.743  69.024   3.077  0.00  0.00    -0.270 OA
ATOM     14  C1  CHE B   09     24.299  69.295  11.064  0.00  0.00    +0.247 C 
ATOM     15  N1  CHE B   09     25.585  68.616   2.110  0.00  0.00    -0.293 N 
ATOM     16  C2  CHE B   09     26.803  68.037   2.159  0.00  0.00    +0.136 C 
ATOM     17  C3  CHE B   09     27.479  67.745   6.188  0.00  0.00    +0.179 C 
ATOM     18  O2  CHE B   09     27.281  67.840   6.180  0.00  0.00    -0.377 OA
ATOM     19  C4  CHE B   09     26.019  68.462   9.131  0.00  0.00    +0.179 C 
ATOM     20  C5  CHE B   09     25.227  68.831   8.099  0.00  0.00    +0.136 C 
ENDBRANCH   7  14
ENDBRANCH   1  10
BRANCH   3  21
ATOM     21  C13 CHE B   09     16.748  66.945   8.411  0.00  0.00    +0.029 A 
ATOM     22  C14 CHE B   09     16.805  68.342   2.574  0.00  0.00    +0.114 A 
ATOM     23  N2  CHE B   09     15.767  67.340   5.437  0.00  0.00    -0.284 N 
ATOM     24  N3  CHE B   09     14.888  67.536   3.442  0.00  0.00    -0.172 NA
ATOM     25  C15 CHE B   09     15.442  67.703   3.473  0.00  0.00    +0.118 A 
ATOM     26  H13 CHE B   09     15.557  67.737   3.479  0.00  0.00    +0.188 HD
BRANCH  25  27
ATOM     27  C16 CHE B   09     14.940  66.862   6.365  0.00  0.00    +0.091 A 
ATOM     28  C17 CHE B   09     14.664  67.184   8.385  0.00  0.00    +0.030 A 
ATOM     29  C18 CHE B   09     14.935  66.782   6.357  0.00  0.00    +0.004 A 
ATOM     30  C19 CHE B   09     15.171  65.864   4.275  0.00  0.00    +0.020 A 
ATOM     31  C20 CHE B   09     14.982  65.256   5.205  0.00  0.00    +0.111 A 
ATOM     32  N4  CHE B   09     15.177  65.963   4.285  0.00  0.00    -0.253 NA
ENDBRANCH  25  27
ENDBRANCH   3  21
TORSDOF 4
ENDMDL
MODEL 2
REMARK VINA RESULT:     -11.8      1.703      2.349
REMARK  Name = dock_mp/CHEMBL4/CHEMBL436944.pdb
REMARK  4 active torsions:
REMARK  status: ('A' for Active; 'I' for Inactive)
REMARK    1  A    between atoms: C1_2  and  C6_9
REMARK    2  A    between atoms: C9_12  and  C10_13
REMARK    3  A    between atoms: C12_15  and  C13_16
REMARK    4  A    between atoms: C15_20  and  C16_21
REMARK                            x       y       z     vdW  Elec       q    Type
REMARK                         _______ _______ _______ _____ _____    ______ ____
ROOT
ATOM      1  C10 CHE B   09     19.796  69.082   3.936  0.00  0.00    +0.072 A 
ATOM      2  C11 CHE B   09     19.299  68.470   5.034  0.00  0.00    +0.037 A 
ATOM      3  C12 CHE B   09     17.251  68.632   2.512  0.00  0.00    -0.011 A 
ATOM      4  C21 CHE B   09     16.958  68.494   2.576  0.00  0.00    +0.028 A 
ATOM      5  C22 CHE B   09     17.765  68.875   2.399  0.00  0.00    +0.112 A 
ATOM      6  N5  CHE B   09     21.322  67.542   9.543  0.00  0.00    -0.255 NA
ENDROOT
BRANCH   1  10
ATOM      7  C6  CHE B   09     23.211  69.820   1.936  0.00  0.00    +0.037 A 
ATOM      8  C7  CHE B   09     22.128  69.856   1.218  0.00  0.00    +0.014 A 
ATOM      9  C8  CHE B   09     23.553  68.238  10.049  0.00  0.00    +0.011 A 
ATOM     10  C9  CHE B   09     22.519  68.486   8.291  0.00  0.00    +0.000 A 
ATOM     11  C23 CHE B   09     23.621  68.453   9.004  0.00  0.00    +0.011 A 
ATOM     12  C24 CHE B   09     22.783  69.753   2.058  0.00  0.00    +0.014 A 
BRANCH   7  14
ATOM     13  O1  CHE B   09     24.665  69.531   1.450  0.00  0.00    -0.270 OA
ATOM     14  C1  CHE B   09     26.824  68.749   9.117  0.00  0.00    +0.247 C 
ATOM     15  N1  CHE B   09     25.207  69.468   0.220  0.00  0.00    -0.293 N 
ATOM     16  C2  CHE B   09     26.466  69.218  -0.200  0.00  0.00    +0.136 C 
ATOM     17  C3  CHE B   09     28.473  68.642   3.323  0.00  0.00    +0.179 C 
ATOM     18  O2  CHE B   09     28.268  68.683   3.392  0.00  0.00    -0.377 OA
ATOM     19  C4  CHE B   09     27.946  68.615   6.645  0.00  0.00    +0.179 C 
ATOM     20  C5  CHE B   09     26.801  68.886   5.979  0.00  0.00    +0.136 C 
ENDBRANCH   7  14
ENDBRANCH   1  10
BRANCH   3  21
ATOM     21  C13 CHE B   09     18.555  66.610   9.158  0.00  0.00    +0.029 A 
ATOM     22  C14 CHE B   09     16.785  68.234   3.658  0.00  0.00    +0.114 A 
ATOM     23  N2  CHE B   09     16.672  67.255   6.708  0.00  0.00    -0.284 N 
ATOM     24  N3  CHE B   09     15.193  67.648   5.142  0.00  0.00    -0.172 NA
ATOM     25  C15 CHE B   09     15.742  67.739   4.977  0.00  0.00    +0.118 A 
ATOM     26  H13 CHE B   09     15.855  67.758   4.943  0.00  0.00    +0.188 HD
BRANCH  25  27
ATOM     27  C16 CHE B   09     16.159  66.849   7.868  0.00  0.00    +0.091 A 
ATOM     28  C17 CHE B   09     16.539  65.482   9.367  0.00  0.00    +0.030 A 
ATOM     29  C18 CHE B   09     16.150  66.919   7.907  0.00  0.00    +0.004 A 
ATOM     30  C19 CHE B   09     15.701  68.807   6.697  0.00  0.00    +0.020 A 
ATOM     31  C20 CHE B   09     15.802  68.797   7.819  0.00  0.00    +0.111 A 
ATOM     32  N4  CHE B   09     15.712  68.720   6.648  0.00  0.00    -0.253 NA
ENDBRANCH  25  27
ENDBRANCH   3  21
TORSDOF 4
ENDMDL
MODEL 3
REMARK VINA RESULT:     -11.8      2.375      6.135
REMARK  Name = dock_mp/CHEMBL4/CHEMBL436944.pdb
REMARK  4 active torsions:
REMARK  status: ('A' for Active; 'I' for Inactive)
REMARK    1  A    between atoms: C1_2  and  C6_9
REMARK    2  A    between atoms: C9_12  and  C10_13
REMARK    3  A    between atoms: C12_15  and  C13_16
REMARK    4  A    between atoms: C15_20  and  C16_21
REMARK                            x       y       z     vdW  Elec       q    Type
REMARK                         _______ _______ _______ _____ _____    ______ ____
ROOT
ATOM      1  C10 CHE B   09     19.119  68.818   8.899  0.00  0.00    +0.072 A 
ATOM      2  C11 CHE B   09     18.528  68.574   7.708  0.00  0.00    +0.037 A 
ATOM      3  C12 CHE B   09     16.675  67.957  10.311  0.00  0.00    -0.011 A 
ATOM      4  C21 CHE B   09     16.375  67.845  10.230  0.00  0.00    +0.028 A 
ATOM      5  C22 CHE B   09     17.202  68.153  10.452  0.00  0.00    +0.112 A 
ATOM      6  N5  CHE B   09     20.188  69.072   2.988  0.00  0.00    -0.255 NA
ENDROOT
BRANCH   1  10
ATOM      7  C6  CHE B   09     22.541  69.723  10.817  0.00  0.00    +0.037 A 
ATOM      8  C7  CHE B   09     21.536  69.427  11.585  0.00  0.00    +0.014 A 
ATOM      9  C8  CHE B   09     22.395  69.875   2.546  0.00  0.00    +0.011 A 
ATOM     10  C9  CHE B   09     21.498  69.584   4.371  0.00  0.00    +0.000 A 
ATOM     11  C23 CHE B   09     22.522  69.886   3.609  0.00  0.00    +0.011 A 
ATOM     12  C24 CHE B   09     22.120  69.609  10.708  0.00  0.00    +0.014 A 
BRANCH   7  14
ATOM     13  O1  CHE B   09     23.487  68.484  10.758  0.00  0.00    -0.270 OA
ATOM     14  C1  CHE B   09     25.615  70.749   3.383  0.00  0.00    +0.247 C 
ATOM     15  N1  CHE B   09     23.748  67.508  11.647  0.00  0.00    -0.293 N 
ATOM     16  C2  CHE B   09     24.566  66.435  11.595  0.00  0.00    +0.136 C 
ATOM     17  C3  CHE B   09     26.233  66.778   7.870  0.00  0.00    +0.179 C 
ATOM     18  O2  CHE B   09     26.100  66.952   7.878  0.00  0.00    -0.377 OA
ATOM     19  C4  CHE B   09     26.163  68.767   5.159  0.00  0.00    +0.179 C 
ATOM     20  C5  CHE B   09     25.328  69.229   6.117  0.00  0.00    +0.136 C 
ENDBRANCH   7  14
ENDBRANCH   1  10
BRANCH   3  21
ATOM     21  C13 CHE B   09     17.435  68.071   3.284  0.00  0.00    +0.029 A 
ATOM     22  C14 CHE B   09     16.166  67.714   9.140  0.00  0.00    +0.114 A 
ATOM     23  N2  CHE B   09     15.856  67.497   5.956  0.00  0.00    -0.284 N 
ATOM     24  N3  CHE B   09     14.592  67.026   7.680  0.00  0.00    -0.172 NA
ATOM     25  C15 CHE B   09     15.111  67.243   7.821  0.00  0.00    +0.118 A 
ATOM     26  H13 CHE B   09     15.219  67.288   7.850  0.00  0.00    +0.188 HD
BRANCH  25  27
ATOM     27  C16 CHE B   09     15.303  67.236   4.773  0.00  0.00    +0.091 A 
ATOM     28  C17 CHE B   09     15.369  68.105   2.902  0.00  0.00    +0.030 A 
ATOM     29  C18 CHE B   09     15.308  67.158   4.759  0.00  0.00    +0.004 A 
ATOM     30  C19 CHE B   09     15.283  65.701   6.522  0.00  0.00    +0.020 A 
ATOM     31  C20 CHE B   09     15.370  65.374   5.446  0.00  0.00    +0.111 A 
ATOM     32  N4  CHE B   09     15.276  65.799   6.540  0.00  0.00    -0.253 NA
ENDBRANCH  25  27
ENDBRANCH   3  21
TORSDOF 4
ENDMDL
MODEL 4
REMARK VINA RESULT:     -11.7      2.096      2.979
REMARK  Name = dock_mp/CHEMBL4/CHEMBL436944.pdb
REMARK  4 active torsions:
REMARK  status: ('A' for Active; 'I' for Inactive)
REMARK    1  A    between atoms: C1_2  and  C6_9
REMARK    2  A    between atoms: C9_12  and  C10_13
REMARK    3  A    between atoms: C12_15  and  C13_16
REMARK    4  A    between atoms: C15_20  and  C16_21
REMARK                            x       y       z     vdW  Elec       q    Type
REMARK                         _______ _______ _______ _____ _____    ______ ____
ROOT
ATOM      1  C10 CHE B   09     19.873  69.580   5.488  0.00  0.00    +0.072 A 
ATOM      2  C11 CHE B   09     19.487  69.177   6.719  0.00  0.00    +0.037 A 
ATOM      3  C12 CHE B   09     17.491  68.303   4.303  0.00  0.00    -0.011 A 
ATOM      4  C21 CHE B   09     17.230  68.131   4.408  0.00  0.00    +0.028 A 
ATOM      5  C22 CHE B   09     17.950  68.606   4.117  0.00  0.00    +0.112 A 
ATOM      6  N5  CHE B   09     21.572  69.814  11.250  0.00  0.00    -0.255 NA
ENDROOT
BRANCH   1  10
ATOM      7  C6  CHE B   09     23.263  69.786   3.325  0.00  0.00    +0.037 A 
ATOM      8  C7  CHE B   09     22.187  69.519   2.647  0.00  0.00    +0.014 A 
ATOM      9  C8  CHE B   09     23.612  71.044  11.495  0.00  0.00    +0.011 A 
ATOM     10  C9  CHE B   09     22.583  70.630   9.766  0.00  0.00    +0.000 A 
ATOM     11  C23 CHE B   09     23.678  70.898  10.437  0.00  0.00    +0.011 A 
ATOM     12  C24 CHE B   09     22.838  69.741   3.466  0.00  0.00    +0.014 A 
BRANCH   7  14
ATOM     13  O1  CHE B   09     24.726  69.378   2.968  0.00  0.00    -0.270 OA
ATOM     14  C1  CHE B   09     26.860  71.387  10.415  0.00  0.00    +0.247 C 
ATOM     15  N1  CHE B   09     25.276  68.900   1.837  0.00  0.00    -0.293 N 
ATOM     16  C2  CHE B   09     26.542  68.547   1.528  0.00  0.00    +0.136 C 
ATOM     17  C3  CHE B   09     28.542  69.291   5.023  0.00  0.00    +0.179 C 
ATOM     18  O2  CHE B   09     28.336  69.349   5.074  0.00  0.00    -0.377 OA
ATOM     19  C4  CHE B   09     27.998  70.419   8.145  0.00  0.00    +0.179 C 
ATOM     20  C5  CHE B   09     26.851  70.413   7.429  0.00  0.00    +0.136 C 
ENDBRANCH   7  14
ENDBRANCH   1  10
BRANCH   3  21
ATOM     21  C13 CHE B   09     19.049  68.296  11.197  0.00  0.00    +0.029 A 
ATOM     22  C14 CHE B   09     17.086  68.148   5.527  0.00  0.00    +0.114 A 
ATOM     23  N2  CHE B   09     17.107  67.987   8.729  0.00  0.00    -0.284 N 
ATOM     24  N3  CHE B   09     15.596  67.728   7.166  0.00  0.00    -0.172 NA
ATOM     25  C15 CHE B   09     16.124  67.857   6.964  0.00  0.00    +0.118 A 
ATOM     26  H13 CHE B   09     16.233  67.884   6.923  0.00  0.00    +0.188 HD
BRANCH  25  27
ATOM     27  C16 CHE B   09     16.655  67.821   9.971  0.00  0.00    +0.091 A 
ATOM     28  C17 CHE B   09     17.061  68.669  11.809  0.00  0.00    +0.030 A 
ATOM     29  C18 CHE B   09     16.651  67.742   9.986  0.00  0.00    +0.004 A 
ATOM     30  C19 CHE B   09     16.209  66.306   8.262  0.00  0.00    +0.020 A 
ATOM     31  C20 CHE B   09     16.367  65.970   9.326  0.00  0.00    +0.111 A 
ATOM     32  N4  CHE B   09     16.215  66.404   8.243  0.00  0.00    -0.253 NA
ENDBRANCH  25  27
ENDBRANCH   3  21
TORSDOF 4
ENDMDL
