MODEL 1
REMARK VINA RESULT:     -13.3      0.000      0.000
REMARK  Name = dock_mp/CHEMBL4/CHEMBL406411.pdb
REMARK  8 active torsions:
REMARK  status: ('A' for Active; 'I' for Inactive)
REMARK    1  A    between atoms: C1_1  and  N1_2
REMARK    2  A    between atoms: C5_6  and  C6_7
REMARK    3  A    between atoms: C6_7  and  C7_8
REMARK    4  A    between atoms: C7_8  and  C8_9
REMARK    5  A    between atoms: C8_9  and  O1_10
REMARK    6  A    between atoms: O1_10  and  C9_11
REMARK    7  A    between atoms: C13_15  and  C14_16
REMARK    8  A    between atoms: C19_23  and  C20_24
REMARK                            x       y       z     vdW  Elec       q    Type
REMARK                         _______ _______ _______ _____ _____    ______ ____
ROOT
ATOM      1  C9  CHE B   04     20.071  67.456   8.285  0.00  0.00    +0.123 A 
ATOM      2  C10 CHE B   04     19.281  67.668   7.233  0.00  0.00    +0.046 A 
ATOM      3  C11 CHE B   04     23.642  70.332   8.103  0.00  0.00    +0.014 A 
ATOM      4  C12 CHE B   04     16.004  67.443   4.289  0.00  0.00    +0.008 A 
ATOM      5  C13 CHE B   04     18.661  69.402   4.386  0.00  0.00    -0.003 A 
ATOM      6  C25 CHE B   04     18.690  69.666   4.075  0.00  0.00    +0.029 A 
ATOM      7  C26 CHE B   04     22.037  70.517   6.281  0.00  0.00    +0.112 A 
ATOM      8  N5  CHE B   04     16.826  67.528   4.991  0.00  0.00    -0.255 NA
ATOM      9  C27 CHE B   04     17.645  67.575   5.738  0.00  0.00    +0.075 A 
ATOM     10  C28 CHE B   04     17.549  66.710   6.758  0.00  0.00    +0.074 A 
ENDROOT
BRANCH   5  11
ATOM     11  C14 CHE B   04     17.871  69.613   3.335  0.00  0.00    +0.033 A 
ATOM     12  C15 CHE B   04     18.894  69.517   3.297  0.00  0.00    +0.048 A 
ATOM     13  C16 CHE B   04     18.805  69.473   3.715  0.00  0.00    +0.057 C 
ATOM     14  C17 CHE B   04     18.028  69.690   2.605  0.00  0.00    +0.029 C 
ATOM     15  C18 CHE B   04     19.136  69.636   2.169  0.00  0.00    +0.144 C 
ATOM     16  N2  CHE B   04     19.078  69.608   2.441  0.00  0.00    -0.267 N 
ATOM     17  N3  CHE B   04     17.198  69.882   1.738  0.00  0.00    -0.169 NA
ATOM     18  C19 CHE B   04     20.953  69.331   3.164  0.00  0.00    +0.119 A 
BRANCH  18  19
ATOM     19  C20 CHE B   04     18.071  69.712   2.401  0.00  0.00    +0.091 A 
ATOM     20  C21 CHE B   04     25.007  68.893   3.176  0.00  0.00    +0.030 A 
ATOM     21  C22 CHE B   04     19.200  69.642   1.855  0.00  0.00    +0.004 A 
ATOM     22  C23 CHE B   04     20.075  69.485   2.519  0.00  0.00    +0.020 A 
ATOM     23  C24 CHE B   04     21.895  69.197   3.506  0.00  0.00    +0.111 A 
ATOM     24  N4  CHE B   04     21.873  69.190   3.613  0.00  0.00    -0.253 NA
ENDBRANCH  18  19
ENDBRANCH   5  11
BRANCH   1  25
ATOM     25  O1  CHE B   04     21.678  67.284  10.092  0.00  0.00    -0.492 OA
BRANCH  25  26
ATOM     26  C8  CHE B   04     20.704  69.223   9.649  0.00  0.00    +0.229 C 
BRANCH  26  27
ATOM     27  C7  CHE B   04     23.016  67.695  12.868  0.00  0.00    +0.039 C 
BRANCH  27  28
ATOM     28  C6  CHE B   04     15.707  69.636   7.981  0.00  0.00    -0.012 C 
BRANCH  28  34
ATOM     29  C1  CHE B   04     17.689  67.880  11.766  0.00  0.00    -0.096 C 
ATOM     30  N1  CHE B   04     16.058  67.913  10.600  0.00  0.00    +0.380 N 
ATOM     31  C2  CHE B   04     17.830  66.973  13.115  0.00  0.00    -0.079 C 
ATOM     32  C3  CHE B   04     18.079  67.302  12.832  0.00  0.00    -0.020 C 
ATOM     33  C4  CHE B   04     18.037  68.341  11.370  0.00  0.00    -0.017 C 
ATOM     34  C5  CHE B   04     20.495  68.308  13.104  0.00  0.00    -0.069 C 
ATOM     35  H4  CHE B   04     14.408  67.919   9.458  0.00  0.00    -0.082 HD
ENDBRANCH  28  34
ENDBRANCH  27  28
ENDBRANCH  26  27
ENDBRANCH  25  26
ENDBRANCH   1  25
TORSDOF 7
ENDMDL
MODEL 2
REMARK VINA RESULT:     -13.0      3.485      9.490
REMARK  Name = dock_mp/CHEMBL4/CHEMBL406411.pdb
REMARK  8 active torsions:
REMARK  status: ('A' for Active; 'I' for Inactive)
REMARK    1  A    between atoms: C1_1  and  N1_2
REMARK    2  A    between atoms: C5_6  and  C6_7
REMARK    3  A    between atoms: C6_7  and  C7_8
REMARK    4  A    between atoms: C7_8  and  C8_9
REMARK    5  A    between atoms: C8_9  and  O1_10
REMARK    6  A    between atoms: O1_10  and  C9_11
REMARK    7  A    between atoms: C13_15  and  C14_16
REMARK    8  A    between atoms: C19_23  and  C20_24
REMARK                            x       y       z     vdW  Elec       q    Type
REMARK                         _______ _______ _______ _____ _____    ______ ____
ROOT
ATOM      1  C9  CHE B   04     20.305  67.939   8.708  0.00  0.00    +0.123 A 
ATOM      2  C10 CHE B   04     21.423  68.548   9.101  0.00  0.00    +0.046 A 
ATOM      3  C11 CHE B   04     17.249  68.019  12.131  0.00  0.00    +0.014 A 
ATOM      4  C12 CHE B   04     25.486  70.259   9.237  0.00  0.00    +0.008 A 
ATOM      5  C13 CHE B   04     23.119  70.185  11.538  0.00  0.00    -0.003 A 
ATOM      6  C25 CHE B   04     23.219  70.364  11.893  0.00  0.00    +0.029 A 
ATOM      7  C26 CHE B   04     19.394  69.076  12.597  0.00  0.00    +0.112 A 
ATOM      8  N5  CHE B   04     24.481  69.851   9.242  0.00  0.00    -0.255 NA
ATOM      9  C27 CHE B   04     23.462  69.416   9.195  0.00  0.00    +0.075 A 
ATOM     10  C28 CHE B   04     23.133  68.832   8.035  0.00  0.00    +0.074 A 
ENDROOT
BRANCH   5  11
ATOM     11  C14 CHE B   04     24.237  70.794  11.932  0.00  0.00    +0.033 A 
ATOM     12  C15 CHE B   04     23.879  69.908  12.312  0.00  0.00    +0.048 A 
ATOM     13  C16 CHE B   04     23.587  70.015  12.015  0.00  0.00    +0.057 C 
ATOM     14  C17 CHE B   04     24.746  70.608  12.450  0.00  0.00    +0.029 C 
ATOM     15  C18 CHE B   04     24.667  69.621  13.114  0.00  0.00    +0.144 C 
ATOM     16  N2  CHE B   04     24.477  69.690  12.921  0.00  0.00    -0.267 N 
ATOM     17  N3  CHE B   04     25.734  71.264  12.712  0.00  0.00    -0.169 NA
ATOM     18  C19 CHE B   04     23.206  68.121  13.115  0.00  0.00    +0.119 A 
BRANCH  18  19
ATOM     19  C20 CHE B   04     24.888  70.556  12.595  0.00  0.00    +0.091 A 
ATOM     20  C21 CHE B   04     21.668  64.613  14.512  0.00  0.00    +0.030 A 
ATOM     21  C22 CHE B   04     24.890  69.536  13.328  0.00  0.00    +0.004 A 
ATOM     22  C23 CHE B   04     24.041  68.831  13.215  0.00  0.00    +0.020 A 
ATOM     23  C24 CHE B   04     22.583  67.332  13.228  0.00  0.00    +0.111 A 
ATOM     24  N4  CHE B   04     22.508  67.360  13.152  0.00  0.00    -0.253 NA
ENDBRANCH  18  19
ENDBRANCH   5  11
BRANCH   1  25
ATOM     25  O1  CHE B   04     18.165  66.891   8.259  0.00  0.00    -0.492 OA
BRANCH  25  26
ATOM     26  C8  CHE B   04     18.871  68.568   6.996  0.00  0.00    +0.229 C 
BRANCH  26  27
ATOM     27  C7  CHE B   04     15.133  67.438   8.668  0.00  0.00    +0.039 C 
BRANCH  27  28
ATOM     28  C6  CHE B   04     21.193  69.550   2.352  0.00  0.00    -0.012 C 
BRANCH  28  34
ATOM     29  C1  CHE B   04     16.875  68.271   3.381  0.00  0.00    -0.096 C 
ATOM     30  N1  CHE B   04     18.166  68.769   1.930  0.00  0.00    +0.380 N 
ATOM     31  C2  CHE B   04     15.314  67.873   3.119  0.00  0.00    -0.079 C 
ATOM     32  C3  CHE B   04     15.652  67.928   3.483  0.00  0.00    -0.020 C 
ATOM     33  C4  CHE B   04     17.349  68.348   3.891  0.00  0.00    -0.017 C 
ATOM     34  C5  CHE B   04     15.431  67.602   6.085  0.00  0.00    -0.069 C 
ATOM     35  H4  CHE B   04     19.429  69.264   0.451  0.00  0.00    -0.082 HD
ENDBRANCH  28  34
ENDBRANCH  27  28
ENDBRANCH  26  27
ENDBRANCH  25  26
ENDBRANCH   1  25
TORSDOF 7
ENDMDL
MODEL 3
REMARK VINA RESULT:     -12.3      2.176      4.922
REMARK  Name = dock_mp/CHEMBL4/CHEMBL406411.pdb
REMARK  8 active torsions:
REMARK  status: ('A' for Active; 'I' for Inactive)
REMARK    1  A    between atoms: C1_1  and  N1_2
REMARK    2  A    between atoms: C5_6  and  C6_7
REMARK    3  A    between atoms: C6_7  and  C7_8
REMARK    4  A    between atoms: C7_8  and  C8_9
REMARK    5  A    between atoms: C8_9  and  O1_10
REMARK    6  A    between atoms: O1_10  and  C9_11
REMARK    7  A    between atoms: C13_15  and  C14_16
REMARK    8  A    between atoms: C19_23  and  C20_24
REMARK                            x       y       z     vdW  Elec       q    Type
REMARK                         _______ _______ _______ _____ _____    ______ ____
ROOT
ATOM      1  C9  CHE B   04     19.600  68.203   8.264  0.00  0.00    +0.123 A 
ATOM      2  C10 CHE B   04     19.760  68.520   6.981  0.00  0.00    +0.046 A 
ATOM      3  C11 CHE B   04     15.124  68.209   9.281  0.00  0.00    +0.014 A 
ATOM      4  C12 CHE B   04     21.504  69.421   3.030  0.00  0.00    +0.008 A 
ATOM      5  C13 CHE B   04     18.352  69.358   4.012  0.00  0.00    -0.003 A 
ATOM      6  C25 CHE B   04     18.080  69.449   3.719  0.00  0.00    +0.029 A 
ATOM      7  C26 CHE B   04     15.691  68.762   6.977  0.00  0.00    +0.112 A 
ATOM      8  N5  CHE B   04     21.038  69.206   3.986  0.00  0.00    -0.255 NA
ATOM      9  C27 CHE B   04     20.612  68.977   4.984  0.00  0.00    +0.075 A 
ATOM     10  C28 CHE B   04     21.503  68.681   5.941  0.00  0.00    +0.074 A 
ENDROOT
BRANCH   5  11
ATOM     11  C14 CHE B   04     18.513  69.675   2.728  0.00  0.00    +0.033 A 
ATOM     12  C15 CHE B   04     17.884  68.943   3.083  0.00  0.00    +0.048 A 
ATOM     13  C16 CHE B   04     18.064  69.102   3.440  0.00  0.00    +0.057 C 
ATOM     14  C17 CHE B   04     18.199  69.397   2.106  0.00  0.00    +0.029 C 
ATOM     15  C18 CHE B   04     17.399  68.512   2.121  0.00  0.00    +0.144 C 
ATOM     16  N2  CHE B   04     17.516  68.616   2.353  0.00  0.00    -0.267 N 
ATOM     17  N3  CHE B   04     18.439  69.785   0.980  0.00  0.00    -0.169 NA
ATOM     18  C19 CHE B   04     16.602  67.455   3.744  0.00  0.00    +0.119 A 
BRANCH  18  19
ATOM     19  C20 CHE B   04     18.111  69.319   1.932  0.00  0.00    +0.091 A 
ATOM     20  C21 CHE B   04     14.124  64.622   5.309  0.00  0.00    +0.030 A 
ATOM     21  C22 CHE B   04     17.237  68.420   1.859  0.00  0.00    +0.004 A 
ATOM     22  C23 CHE B   04     16.924  67.941   2.810  0.00  0.00    +0.020 A 
ATOM     23  C24 CHE B   04     16.140  66.865   4.422  0.00  0.00    +0.111 A 
ATOM     24  N4  CHE B   04     16.190  66.902   4.512  0.00  0.00    -0.253 NA
ENDBRANCH  18  19
ENDBRANCH   5  11
BRANCH   1  25
ATOM     25  O1  CHE B   04     19.020  67.655  10.554  0.00  0.00    -0.492 OA
BRANCH  25  26
ATOM     26  C8  CHE B   04     20.608  69.139  10.132  0.00  0.00    +0.229 C 
BRANCH  26  27
ATOM     27  C7  CHE B   04     17.383  68.897  12.886  0.00  0.00    +0.039 C 
BRANCH  27  28
ATOM     28  C6  CHE B   04     25.832  68.407   9.811  0.00  0.00    -0.012 C 
BRANCH  28  34
ATOM     29  C1  CHE B   04     22.971  68.473  13.437  0.00  0.00    -0.096 C 
ATOM     30  N1  CHE B   04     24.872  68.346  12.816  0.00  0.00    +0.380 N 
ATOM     31  C2  CHE B   04     22.517  68.437  15.004  0.00  0.00    -0.079 C 
ATOM     32  C3  CHE B   04     22.334  68.474  14.540  0.00  0.00    -0.020 C 
ATOM     33  C4  CHE B   04     22.714  68.524  12.787  0.00  0.00    -0.017 C 
ATOM     34  C5  CHE B   04     19.853  68.717  13.696  0.00  0.00    -0.069 C 
ATOM     35  H4  CHE B   04     26.788  68.215  12.232  0.00  0.00    -0.082 HD
ENDBRANCH  28  34
ENDBRANCH  27  28
ENDBRANCH  26  27
ENDBRANCH  25  26
ENDBRANCH   1  25
TORSDOF 7
ENDMDL
MODEL 4
REMARK VINA RESULT:     -12.2      2.801      9.373
REMARK  Name = dock_mp/CHEMBL4/CHEMBL406411.pdb
REMARK  8 active torsions:
REMARK  status: ('A' for Active; 'I' for Inactive)
REMARK    1  A    between atoms: C1_1  and  N1_2
REMARK    2  A    between atoms: C5_6  and  C6_7
REMARK    3  A    between atoms: C6_7  and  C7_8
REMARK    4  A    between atoms: C7_8  and  C8_9
REMARK    5  A    between atoms: C8_9  and  O1_10
REMARK    6  A    between atoms: O1_10  and  C9_11
REMARK    7  A    between atoms: C13_15  and  C14_16
REMARK    8  A    between atoms: C19_23  and  C20_24
REMARK                            x       y       z     vdW  Elec       q    Type
REMARK                         _______ _______ _______ _____ _____    ______ ____
ROOT
ATOM      1  C9  CHE B   04     20.898  69.171   8.821  0.00  0.00    +0.123 A 
ATOM      2  C10 CHE B   04     20.420  68.844  10.021  0.00  0.00    +0.046 A 
ATOM      3  C11 CHE B   04     25.269  70.506   9.243  0.00  0.00    +0.014 A 
ATOM      4  C12 CHE B   04     17.801  67.529  13.318  0.00  0.00    +0.008 A 
ATOM      5  C13 CHE B   04     20.948  68.529  13.356  0.00  0.00    -0.003 A 
ATOM      6  C25 CHE B   04     21.122  68.531  13.726  0.00  0.00    +0.029 A 
ATOM      7  C26 CHE B   04     24.155  69.851  11.307  0.00  0.00    +0.112 A 
ATOM      8  N5  CHE B   04     18.475  67.858  12.534  0.00  0.00    -0.255 NA
ATOM      9  C27 CHE B   04     19.123  68.187  11.696  0.00  0.00    +0.075 A 
ATOM     10  C28 CHE B   04     18.552  68.180  10.484  0.00  0.00    +0.074 A 
ENDROOT
BRANCH   5  11
ATOM     11  C14 CHE B   04     20.470  68.202  14.555  0.00  0.00    +0.033 A 
ATOM     12  C15 CHE B   04     21.208  67.692  14.053  0.00  0.00    +0.048 A 
ATOM     13  C16 CHE B   04     21.108  68.013  13.785  0.00  0.00    +0.057 C 
ATOM     14  C17 CHE B   04     20.644  67.642  15.022  0.00  0.00    +0.029 C 
ATOM     15  C18 CHE B   04     21.478  66.826  14.776  0.00  0.00    +0.144 C 
ATOM     16  N2  CHE B   04     21.413  67.035  14.601  0.00  0.00    -0.267 N 
ATOM     17  N3  CHE B   04     20.122  67.457  16.104  0.00  0.00    -0.169 NA
ATOM     18  C19 CHE B   04     22.700  66.628  13.086  0.00  0.00    +0.119 A 
BRANCH  18  19
ATOM     19  C20 CHE B   04     20.693  67.485  15.153  0.00  0.00    +0.091 A 
ATOM     20  C21 CHE B   04     25.543  64.661  10.925  0.00  0.00    +0.030 A 
ATOM     21  C22 CHE B   04     21.496  66.543  14.937  0.00  0.00    +0.004 A 
ATOM     22  C23 CHE B   04     22.096  66.593  14.006  0.00  0.00    +0.020 A 
ATOM     23  C24 CHE B   04     23.354  66.414  12.345  0.00  0.00    +0.111 A 
ATOM     24  N4  CHE B   04     23.336  66.502  12.282  0.00  0.00    -0.253 NA
ENDBRANCH  18  19
ENDBRANCH   5  11
BRANCH   1  25
ATOM     25  O1  CHE B   04     22.020  69.827   6.775  0.00  0.00    -0.492 OA
BRANCH  25  26
ATOM     26  C8  CHE B   04     19.868  69.307   6.747  0.00  0.00    +0.229 C 
BRANCH  26  27
ATOM     27  C7  CHE B   04     22.822  70.013   3.777  0.00  0.00    +0.039 C 
BRANCH  27  28
ATOM     28  C6  CHE B   04     15.369  66.656   7.552  0.00  0.00    -0.012 C 
BRANCH  28  34
ATOM     29  C1  CHE B   04     17.481  68.232   3.759  0.00  0.00    -0.096 C 
ATOM     30  N1  CHE B   04     15.788  67.496   4.540  0.00  0.00    +0.380 N 
ATOM     31  C2  CHE B   04     17.656  68.655   2.192  0.00  0.00    -0.079 C 
ATOM     32  C3  CHE B   04     17.903  68.635   2.626  0.00  0.00    -0.020 C 
ATOM     33  C4  CHE B   04     17.827  68.204   4.366  0.00  0.00    -0.017 C 
ATOM     34  C5  CHE B   04     20.378  69.307   3.215  0.00  0.00    -0.069 C 
ATOM     35  H4  CHE B   04     14.076  66.761   5.287  0.00  0.00    -0.082 HD
ENDBRANCH  28  34
ENDBRANCH  27  28
ENDBRANCH  26  27
ENDBRANCH  25  26
ENDBRANCH   1  25
TORSDOF 7
ENDMDL
MODEL 5
REMARK VINA RESULT:     -11.4      5.787      9.632
REMARK  Name = dock_mp/CHEMBL4/CHEMBL406411.pdb
REMARK  8 active torsions:
REMARK  status: ('A' for Active; 'I' for Inactive)
REMARK    1  A    between atoms: C1_1  and  N1_2
REMARK    2  A    between atoms: C5_6  and  C6_7
REMARK    3  A    between atoms: C6_7  and  C7_8
REMARK    4  A    between atoms: C7_8  and  C8_9
REMARK    5  A    between atoms: C8_9  and  O1_10
REMARK    6  A    between atoms: O1_10  and  C9_11
REMARK    7  A    between atoms: C13_15  and  C14_16
REMARK    8  A    between atoms: C19_23  and  C20_24
REMARK                            x       y       z     vdW  Elec       q    Type
REMARK                         _______ _______ _______ _____ _____    ______ ____
ROOT
ATOM      1  C9  CHE B   04     24.154  67.871  13.776  0.00  0.00    +0.123 A 
ATOM      2  C10 CHE B   04     22.999  68.039  13.134  0.00  0.00    +0.046 A 
ATOM      3  C11 CHE B   04     23.498  68.516  18.272  0.00  0.00    +0.014 A 
ATOM      4  C12 CHE B   04     19.897  68.330  10.012  0.00  0.00    +0.008 A 
ATOM      5  C13 CHE B   04     19.686  68.743  13.281  0.00  0.00    -0.003 A 
ATOM      6  C25 CHE B   04     19.311  68.836  13.419  0.00  0.00    +0.029 A 
ATOM      7  C26 CHE B   04     21.526  68.766  16.865  0.00  0.00    +0.112 A 
ATOM      8  N5  CHE B   04     20.631  68.267  10.808  0.00  0.00    -0.255 NA
ATOM      9  C27 CHE B   04     21.421  68.191  11.583  0.00  0.00    +0.075 A 
ATOM     10  C28 CHE B   04     22.646  67.886  11.135  0.00  0.00    +0.074 A 
ENDROOT
BRANCH   5  11
ATOM     11  C14 CHE B   04     18.530  68.910  12.640  0.00  0.00    +0.033 A 
ATOM     12  C15 CHE B   04     18.764  68.108  13.239  0.00  0.00    +0.048 A 
ATOM     13  C16 CHE B   04     19.118  68.352  13.255  0.00  0.00    +0.057 C 
ATOM     14  C17 CHE B   04     17.914  68.485  12.611  0.00  0.00    +0.029 C 
ATOM     15  C18 CHE B   04     17.810  67.450  13.194  0.00  0.00    +0.144 C 
ATOM     16  N2  CHE B   04     18.040  67.608  13.205  0.00  0.00    -0.267 N 
ATOM     17  N3  CHE B   04     16.915  68.760  11.976  0.00  0.00    -0.169 NA
ATOM     18  C19 CHE B   04     19.183  66.468  14.434  0.00  0.00    +0.119 A 
BRANCH  18  19
ATOM     19  C20 CHE B   04     17.741  68.366  12.603  0.00  0.00    +0.091 A 
ATOM     20  C21 CHE B   04     20.283  63.325  16.787  0.00  0.00    +0.030 A 
ATOM     21  C22 CHE B   04     17.566  67.245  13.143  0.00  0.00    +0.004 A 
ATOM     22  C23 CHE B   04     18.383  66.863  13.789  0.00  0.00    +0.020 A 
ATOM     23  C24 CHE B   04     19.735  65.889  15.052  0.00  0.00    +0.111 A 
ATOM     24  N4  CHE B   04     19.823  65.955  15.062  0.00  0.00    -0.253 NA
ENDBRANCH  18  19
ENDBRANCH   5  11
BRANCH   1  25
ATOM     25  O1  CHE B   04     26.108  67.626  15.190  0.00  0.00    -0.492 OA
BRANCH  25  26
ATOM     26  C8  CHE B   04     25.683  69.563  14.205  0.00  0.00    +0.229 C 
BRANCH  26  27
ATOM     27  C7  CHE B   04     29.129  67.120  14.659  0.00  0.00    +0.039 C 
BRANCH  27  28
ATOM     28  C6  CHE B   04     22.487  71.553  10.497  0.00  0.00    -0.012 C 
BRANCH  28  34
ATOM     29  C1  CHE B   04     26.356  69.053  10.157  0.00  0.00    -0.096 C 
ATOM     30  N1  CHE B   04     24.927  70.055   9.172  0.00  0.00    +0.380 N 
ATOM     31  C2  CHE B   04     27.604  68.290   9.431  0.00  0.00    -0.079 C 
ATOM     32  C3  CHE B   04     27.407  68.386   9.881  0.00  0.00    -0.020 C 
ATOM     33  C4  CHE B   04     26.081  69.188  10.786  0.00  0.00    -0.017 C 
ATOM     34  C5  CHE B   04     28.215  67.689  12.286  0.00  0.00    -0.069 C 
ATOM     35  H4  CHE B   04     23.514  71.050   8.151  0.00  0.00    -0.082 HD
ENDBRANCH  28  34
ENDBRANCH  27  28
ENDBRANCH  26  27
ENDBRANCH  25  26
ENDBRANCH   1  25
TORSDOF 7
ENDMDL
MODEL 6
REMARK VINA RESULT:     -11.4      6.015      9.649
REMARK  Name = dock_mp/CHEMBL4/CHEMBL406411.pdb
REMARK  8 active torsions:
REMARK  status: ('A' for Active; 'I' for Inactive)
REMARK    1  A    between atoms: C1_1  and  N1_2
REMARK    2  A    between atoms: C5_6  and  C6_7
REMARK    3  A    between atoms: C6_7  and  C7_8
REMARK    4  A    between atoms: C7_8  and  C8_9
REMARK    5  A    between atoms: C8_9  and  O1_10
REMARK    6  A    between atoms: O1_10  and  C9_11
REMARK    7  A    between atoms: C13_15  and  C14_16
REMARK    8  A    between atoms: C19_23  and  C20_24
REMARK                            x       y       z     vdW  Elec       q    Type
REMARK                         _______ _______ _______ _____ _____    ______ ____
ROOT
ATOM      1  C9  CHE B   04     29.065  70.839   4.860  0.00  0.00    +0.123 A 
ATOM      2  C10 CHE B   04     28.561  70.733   3.632  0.00  0.00    +0.046 A 
ATOM      3  C11 CHE B   04     27.637  67.291   7.396  0.00  0.00    +0.014 A 
ATOM      4  C12 CHE B   04     27.537  71.452  -0.599  0.00  0.00    +0.008 A 
ATOM      5  C13 CHE B   04     26.649  69.002   1.430  0.00  0.00    -0.003 A 
ATOM      6  C25 CHE B   04     26.405  68.720   1.261  0.00  0.00    +0.029 A 
ATOM      7  C26 CHE B   04     26.850  67.333   5.092  0.00  0.00    +0.112 A 
ATOM      8  N5  CHE B   04     27.766  71.241   0.440  0.00  0.00    -0.255 NA
ATOM      9  C27 CHE B   04     28.031  71.072   1.504  0.00  0.00    +0.075 A 
ATOM     10  C28 CHE B   04     28.830  71.995   2.056  0.00  0.00    +0.074 A 
ENDROOT
BRANCH   5  11
ATOM     11  C14 CHE B   04     26.145  68.896   0.202  0.00  0.00    +0.033 A 
ATOM     12  C15 CHE B   04     25.600  69.098   1.050  0.00  0.00    +0.048 A 
ATOM     13  C16 CHE B   04     26.003  69.061   1.196  0.00  0.00    +0.057 C 
ATOM     14  C17 CHE B   04     25.443  68.960  -0.053  0.00  0.00    +0.029 C 
ATOM     15  C18 CHE B   04     24.514  69.197   0.656  0.00  0.00    +0.144 C 
ATOM     16  N2  CHE B   04     24.776  69.173   0.751  0.00  0.00    -0.267 N 
ATOM     17  N3  CHE B   04     25.117  68.838  -1.217  0.00  0.00    -0.169 NA
ATOM     18  C19 CHE B   04     24.453  69.506   2.726  0.00  0.00    +0.119 A 
BRANCH  18  19
ATOM     19  C20 CHE B   04     25.246  68.978  -0.124  0.00  0.00    +0.091 A 
ATOM     20  C21 CHE B   04     22.443  70.366   6.168  0.00  0.00    +0.030 A 
ATOM     21  C22 CHE B   04     24.223  69.278   0.540  0.00  0.00    +0.004 A 
ATOM     22  C23 CHE B   04     24.348  69.391   1.637  0.00  0.00    +0.020 A 
ATOM     23  C24 CHE B   04     24.272  69.668   3.708  0.00  0.00    +0.111 A 
ATOM     24  N4  CHE B   04     24.374  69.652   3.746  0.00  0.00    -0.253 NA
ENDBRANCH  18  19
ENDBRANCH   5  11
BRANCH   1  25
ATOM     25  O1  CHE B   04     29.840  70.783   7.157  0.00  0.00    -0.492 OA
BRANCH  25  26
ATOM     26  C8  CHE B   04     27.721  71.245   6.708  0.00  0.00    +0.229 C 
BRANCH  26  27
ATOM     27  C7  CHE B   04     30.473  72.418   9.724  0.00  0.00    +0.039 C 
BRANCH  27  28
ATOM     28  C6  CHE B   04     25.227  73.107   2.438  0.00  0.00    -0.012 C 
BRANCH  28  34
ATOM     29  C1  CHE B   04     27.906  75.206   5.560  0.00  0.00    -0.096 C 
ATOM     30  N1  CHE B   04     26.721  75.432   3.960  0.00  0.00    +0.380 N 
ATOM     31  C2  CHE B   04     28.662  76.438   6.320  0.00  0.00    -0.079 C 
ATOM     32  C3  CHE B   04     28.602  75.942   6.335  0.00  0.00    -0.020 C 
ATOM     33  C4  CHE B   04     27.822  74.511   5.581  0.00  0.00    -0.017 C 
ATOM     34  C5  CHE B   04     29.598  74.148   7.982  0.00  0.00    -0.069 C 
ATOM     35  H4  CHE B   04     25.540  75.697   2.359  0.00  0.00    -0.082 HD
ENDBRANCH  28  34
ENDBRANCH  27  28
ENDBRANCH  26  27
ENDBRANCH  25  26
ENDBRANCH   1  25
TORSDOF 7
ENDMDL
MODEL 7
REMARK VINA RESULT:     -11.3      5.611      9.654
REMARK  Name = dock_mp/CHEMBL4/CHEMBL406411.pdb
REMARK  8 active torsions:
REMARK  status: ('A' for Active; 'I' for Inactive)
REMARK    1  A    between atoms: C1_1  and  N1_2
REMARK    2  A    between atoms: C5_6  and  C6_7
REMARK    3  A    between atoms: C6_7  and  C7_8
REMARK    4  A    between atoms: C7_8  and  C8_9
REMARK    5  A    between atoms: C8_9  and  O1_10
REMARK    6  A    between atoms: O1_10  and  C9_11
REMARK    7  A    between atoms: C13_15  and  C14_16
REMARK    8  A    between atoms: C19_23  and  C20_24
REMARK                            x       y       z     vdW  Elec       q    Type
REMARK                         _______ _______ _______ _____ _____    ______ ____
ROOT
ATOM      1  C9  CHE B   04     24.193  67.734  13.157  0.00  0.00    +0.123 A 
ATOM      2  C10 CHE B   04     22.981  67.943  12.646  0.00  0.00    +0.046 A 
ATOM      3  C11 CHE B   04     24.013  68.191  17.720  0.00  0.00    +0.014 A 
ATOM      4  C12 CHE B   04     19.579  68.407   9.877  0.00  0.00    +0.008 A 
ATOM      5  C13 CHE B   04     19.712  68.680  13.165  0.00  0.00    -0.003 A 
ATOM      6  C25 CHE B   04     19.355  68.772  13.344  0.00  0.00    +0.029 A 
ATOM      7  C26 CHE B   04     21.912  68.525  16.536  0.00  0.00    +0.112 A 
ATOM      8  N5  CHE B   04     20.390  68.301  10.589  0.00  0.00    -0.255 NA
ATOM      9  C27 CHE B   04     21.253  68.181  11.274  0.00  0.00    +0.075 A 
ATOM     10  C28 CHE B   04     22.421  67.881  10.690  0.00  0.00    +0.074 A 
ENDROOT
BRANCH   5  11
ATOM     11  C14 CHE B   04     18.500  68.889  12.653  0.00  0.00    +0.033 A 
ATOM     12  C15 CHE B   04     18.769  68.080  13.228  0.00  0.00    +0.048 A 
ATOM     13  C16 CHE B   04     19.131  68.310  13.204  0.00  0.00    +0.057 C 
ATOM     14  C17 CHE B   04     17.868  68.487  12.696  0.00  0.00    +0.029 C 
ATOM     15  C18 CHE B   04     17.792  67.458  13.294  0.00  0.00    +0.144 C 
ATOM     16  N2  CHE B   04     18.028  67.608  13.278  0.00  0.00    -0.267 N 
ATOM     17  N3  CHE B   04     16.816  68.798  12.174  0.00  0.00    -0.169 NA
ATOM     18  C19 CHE B   04     19.256  66.429  14.381  0.00  0.00    +0.119 A 
BRANCH  18  19
ATOM     19  C20 CHE B   04     17.691  68.374  12.708  0.00  0.00    +0.091 A 
ATOM     20  C21 CHE B   04     20.494  63.251  16.616  0.00  0.00    +0.030 A 
ATOM     21  C22 CHE B   04     17.537  67.261  13.269  0.00  0.00    +0.004 A 
ATOM     22  C23 CHE B   04     18.405  66.851  13.825  0.00  0.00    +0.020 A 
ATOM     23  C24 CHE B   04     19.852  65.831  14.938  0.00  0.00    +0.111 A 
ATOM     24  N4  CHE B   04     19.942  65.894  14.938  0.00  0.00    -0.253 NA
ENDBRANCH  18  19
ENDBRANCH   5  11
BRANCH   1  25
ATOM     25  O1  CHE B   04     26.277  67.404  14.350  0.00  0.00    -0.492 OA
BRANCH  25  26
ATOM     26  C8  CHE B   04     26.285  67.693  12.155  0.00  0.00    +0.229 C 
BRANCH  26  27
ATOM     27  C7  CHE B   04     24.868  64.665  14.776  0.00  0.00    +0.039 C 
BRANCH  27  28
ATOM     28  C6  CHE B   04     27.437  68.548   7.069  0.00  0.00    -0.012 C 
BRANCH  28  34
ATOM     29  C1  CHE B   04     26.203  64.725   9.349  0.00  0.00    -0.096 C 
ATOM     30  N1  CHE B   04     26.589  65.550   7.564  0.00  0.00    +0.380 N 
ATOM     31  C2  CHE B   04     25.767  63.167   9.561  0.00  0.00    -0.079 C 
ATOM     32  C3  CHE B   04     25.856  63.590   9.813  0.00  0.00    -0.020 C 
ATOM     33  C4  CHE B   04     26.329  65.318   9.701  0.00  0.00    -0.017 C 
ATOM     34  C5  CHE B   04     25.754  64.102  12.392  0.00  0.00    -0.069 C 
ATOM     35  H4  CHE B   04     26.968  66.340   5.758  0.00  0.00    -0.082 HD
ENDBRANCH  28  34
ENDBRANCH  27  28
ENDBRANCH  26  27
ENDBRANCH  25  26
ENDBRANCH   1  25
TORSDOF 7
ENDMDL
MODEL 8
REMARK VINA RESULT:     -11.2      2.710      5.122
REMARK  Name = dock_mp/CHEMBL4/CHEMBL406411.pdb
REMARK  8 active torsions:
REMARK  status: ('A' for Active; 'I' for Inactive)
REMARK    1  A    between atoms: C1_1  and  N1_2
REMARK    2  A    between atoms: C5_6  and  C6_7
REMARK    3  A    between atoms: C6_7  and  C7_8
REMARK    4  A    between atoms: C7_8  and  C8_9
REMARK    5  A    between atoms: C8_9  and  O1_10
REMARK    6  A    between atoms: O1_10  and  C9_11
REMARK    7  A    between atoms: C13_15  and  C14_16
REMARK    8  A    between atoms: C19_23  and  C20_24
REMARK                            x       y       z     vdW  Elec       q    Type
REMARK                         _______ _______ _______ _____ _____    ______ ____
ROOT
ATOM      1  C9  CHE B   04     22.639  70.207   6.735  0.00  0.00    +0.123 A 
ATOM      2  C10 CHE B   04     22.649  69.998   5.419  0.00  0.00    +0.046 A 
ATOM      3  C11 CHE B   04     26.949  70.159   8.311  0.00  0.00    +0.014 A 
ATOM      4  C12 CHE B   04     21.438  69.417   1.217  0.00  0.00    +0.008 A 
ATOM      5  C13 CHE B   04     24.439  69.428   2.596  0.00  0.00    -0.003 A 
ATOM      6  C25 CHE B   04     24.748  69.365   2.334  0.00  0.00    +0.029 A 
ATOM      7  C26 CHE B   04     26.690  69.798   5.916  0.00  0.00    +0.112 A 
ATOM      8  N5  CHE B   04     21.775  69.556   2.239  0.00  0.00    -0.255 NA
ATOM      9  C27 CHE B   04     22.066  69.703   3.299  0.00  0.00    +0.075 A 
ATOM     10  C28 CHE B   04     21.056  69.908   4.155  0.00  0.00    +0.074 A 
ENDROOT
BRANCH   5  11
ATOM     11  C14 CHE B   04     24.449  69.219   1.280  0.00  0.00    +0.033 A 
ATOM     12  C15 CHE B   04     24.848  70.041   1.753  0.00  0.00    +0.048 A 
ATOM     13  C16 CHE B   04     24.691  69.806   2.076  0.00  0.00    +0.057 C 
ATOM     14  C17 CHE B   04     24.723  69.630   0.716  0.00  0.00    +0.029 C 
ATOM     15  C18 CHE B   04     25.271  70.676   0.879  0.00  0.00    +0.144 C 
ATOM     16  N2  CHE B   04     25.169  70.523   1.090  0.00  0.00    -0.267 N 
ATOM     17  N3  CHE B   04     24.663  69.317  -0.457  0.00  0.00    -0.169 NA
ATOM     18  C19 CHE B   04     25.668  71.718   2.652  0.00  0.00    +0.119 A 
BRANCH  18  19
ATOM     19  C20 CHE B   04     24.799  69.745   0.558  0.00  0.00    +0.091 A 
ATOM     20  C21 CHE B   04     27.171  74.928   4.666  0.00  0.00    +0.030 A 
ATOM     21  C22 CHE B   04     25.364  70.864   0.636  0.00  0.00    +0.004 A 
ATOM     22  C23 CHE B   04     25.512  71.285   1.652  0.00  0.00    +0.020 A 
ATOM     23  C24 CHE B   04     25.927  72.325   3.418  0.00  0.00    +0.111 A 
ATOM     24  N4  CHE B   04     25.890  72.263   3.501  0.00  0.00    -0.253 NA
ENDBRANCH  18  19
ENDBRANCH   5  11
BRANCH   1  25
ATOM     25  O1  CHE B   04     22.913  70.565   9.117  0.00  0.00    -0.492 OA
BRANCH  25  26
ATOM     26  C8  CHE B   04     20.962  69.901   8.308  0.00  0.00    +0.229 C 
BRANCH  26  27
ATOM     27  C7  CHE B   04     22.907  69.600  12.072  0.00  0.00    +0.039 C 
BRANCH  27  28
ATOM     28  C6  CHE B   04     16.884  67.919   5.593  0.00  0.00    -0.012 C 
BRANCH  28  34
ATOM     29  C1  CHE B   04     17.814  68.220  10.108  0.00  0.00    -0.096 C 
ATOM     30  N1  CHE B   04     16.431  67.820   8.714  0.00  0.00    +0.380 N 
ATOM     31  C2  CHE B   04     17.537  68.157  11.715  0.00  0.00    -0.079 C 
ATOM     32  C3  CHE B   04     17.894  68.254  11.379  0.00  0.00    -0.020 C 
ATOM     33  C4  CHE B   04     18.314  68.356   9.638  0.00  0.00    -0.017 C 
ATOM     34  C5  CHE B   04     20.407  68.961  11.712  0.00  0.00    -0.069 C 
ATOM     35  H4  CHE B   04     15.019  67.412   7.347  0.00  0.00    -0.082 HD
ENDBRANCH  28  34
ENDBRANCH  27  28
ENDBRANCH  26  27
ENDBRANCH  25  26
ENDBRANCH   1  25
TORSDOF 7
ENDMDL
MODEL 9
REMARK VINA RESULT:     -11.0      5.675      9.659
REMARK  Name = dock_mp/CHEMBL4/CHEMBL406411.pdb
REMARK  8 active torsions:
REMARK  status: ('A' for Active; 'I' for Inactive)
REMARK    1  A    between atoms: C1_1  and  N1_2
REMARK    2  A    between atoms: C5_6  and  C6_7
REMARK    3  A    between atoms: C6_7  and  C7_8
REMARK    4  A    between atoms: C7_8  and  C8_9
REMARK    5  A    between atoms: C8_9  and  O1_10
REMARK    6  A    between atoms: O1_10  and  C9_11
REMARK    7  A    between atoms: C13_15  and  C14_16
REMARK    8  A    between atoms: C19_23  and  C20_24
REMARK                            x       y       z     vdW  Elec       q    Type
REMARK                         _______ _______ _______ _____ _____    ______ ____
ROOT
ATOM      1  C9  CHE B   04     24.063  68.399  13.659  0.00  0.00    +0.123 A 
ATOM      2  C10 CHE B   04     22.904  68.456  13.006  0.00  0.00    +0.046 A 
ATOM      3  C11 CHE B   04     23.294  68.854  18.161  0.00  0.00    +0.014 A 
ATOM      4  C12 CHE B   04     19.821  68.489   9.852  0.00  0.00    +0.008 A 
ATOM      5  C13 CHE B   04     19.532  68.795  13.127  0.00  0.00    -0.003 A 
ATOM      6  C25 CHE B   04     19.148  68.843  13.261  0.00  0.00    +0.029 A 
ATOM      7  C26 CHE B   04     21.321  68.926  16.734  0.00  0.00    +0.112 A 
ATOM      8  N5  CHE B   04     20.549  68.487  10.655  0.00  0.00    -0.255 NA
ATOM      9  C27 CHE B   04     21.334  68.476  11.439  0.00  0.00    +0.075 A 
ATOM     10  C28 CHE B   04     22.590  68.317  11.000  0.00  0.00    +0.074 A 
ENDROOT
BRANCH   5  11
ATOM     11  C14 CHE B   04     18.372  68.852  12.474  0.00  0.00    +0.033 A 
ATOM     12  C15 CHE B   04     18.656  68.096  13.111  0.00  0.00    +0.048 A 
ATOM     13  C16 CHE B   04     18.992  68.365  13.117  0.00  0.00    +0.057 C 
ATOM     14  C17 CHE B   04     17.786  68.385  12.463  0.00  0.00    +0.029 C 
ATOM     15  C18 CHE B   04     17.750  67.373  13.094  0.00  0.00    +0.144 C 
ATOM     16  N2  CHE B   04     17.968  67.548  13.098  0.00  0.00    -0.267 N 
ATOM     17  N3  CHE B   04     16.775  68.561  11.813  0.00  0.00    -0.169 NA
ATOM     18  C19 CHE B   04     19.178  66.547  14.383  0.00  0.00    +0.119 A 
BRANCH  18  19
ATOM     19  C20 CHE B   04     17.622  68.254  12.460  0.00  0.00    +0.091 A 
ATOM     20  C21 CHE B   04     20.461  63.614  16.908  0.00  0.00    +0.030 A 
ATOM     21  C22 CHE B   04     17.510  67.161  13.070  0.00  0.00    +0.004 A 
ATOM     22  C23 CHE B   04     18.352  66.861  13.727  0.00  0.00    +0.020 A 
ATOM     23  C24 CHE B   04     19.766  66.036  15.028  0.00  0.00    +0.111 A 
ATOM     24  N4  CHE B   04     19.850  66.106  15.032  0.00  0.00    -0.253 NA
ENDBRANCH  18  19
ENDBRANCH   5  11
BRANCH   1  25
ATOM     25  O1  CHE B   04     26.017  68.330  15.093  0.00  0.00    -0.492 OA
BRANCH  25  26
ATOM     26  C8  CHE B   04     25.599  66.660  13.700  0.00  0.00    +0.229 C 
BRANCH  26  27
ATOM     27  C7  CHE B   04     26.311  70.824  13.261  0.00  0.00    +0.039 C 
BRANCH  27  28
ATOM     28  C6  CHE B   04     26.619  62.025  11.376  0.00  0.00    -0.012 C 
BRANCH  28  34
ATOM     29  C1  CHE B   04     26.085  66.387   9.951  0.00  0.00    -0.096 C 
ATOM     30  N1  CHE B   04     25.869  64.447   9.497  0.00  0.00    +0.380 N 
ATOM     31  C2  CHE B   04     25.683  67.610   8.949  0.00  0.00    -0.079 C 
ATOM     32  C3  CHE B   04     25.871  67.517   9.402  0.00  0.00    -0.020 C 
ATOM     33  C4  CHE B   04     26.348  66.256  10.587  0.00  0.00    -0.017 C 
ATOM     34  C5  CHE B   04     26.682  69.161  11.290  0.00  0.00    -0.069 C 
ATOM     35  H4  CHE B   04     25.638  62.514   9.007  0.00  0.00    -0.082 HD
ENDBRANCH  28  34
ENDBRANCH  27  28
ENDBRANCH  26  27
ENDBRANCH  25  26
ENDBRANCH   1  25
TORSDOF 7
ENDMDL
MODEL 10
REMARK VINA RESULT:     -10.9      2.520      5.630
REMARK  Name = dock_mp/CHEMBL4/CHEMBL406411.pdb
REMARK  8 active torsions:
REMARK  status: ('A' for Active; 'I' for Inactive)
REMARK    1  A    between atoms: C1_1  and  N1_2
REMARK    2  A    between atoms: C5_6  and  C6_7
REMARK    3  A    between atoms: C6_7  and  C7_8
REMARK    4  A    between atoms: C7_8  and  C8_9
REMARK    5  A    between atoms: C8_9  and  O1_10
REMARK    6  A    between atoms: O1_10  and  C9_11
REMARK    7  A    between atoms: C13_15  and  C14_16
REMARK    8  A    between atoms: C19_23  and  C20_24
REMARK                            x       y       z     vdW  Elec       q    Type
REMARK                         _______ _______ _______ _____ _____    ______ ____
ROOT
ATOM      1  C9  CHE B   04     22.650  69.869   6.941  0.00  0.00    +0.123 A 
ATOM      2  C10 CHE B   04     22.857  69.835   5.625  0.00  0.00    +0.046 A 
ATOM      3  C11 CHE B   04     26.661  70.458   9.093  0.00  0.00    +0.014 A 
ATOM      4  C12 CHE B   04     22.293  69.568   1.259  0.00  0.00    +0.008 A 
ATOM      5  C13 CHE B   04     25.044  69.985   3.038  0.00  0.00    -0.003 A 
ATOM      6  C25 CHE B   04     25.387  70.017   2.817  0.00  0.00    +0.029 A 
ATOM      7  C26 CHE B   04     26.765  70.360   6.661  0.00  0.00    +0.112 A 
ATOM      8  N5  CHE B   04     22.472  69.638   2.326  0.00  0.00    -0.255 NA
ATOM      9  C27 CHE B   04     22.600  69.704   3.426  0.00  0.00    +0.075 A 
ATOM     10  C28 CHE B   04     21.477  69.599   4.148  0.00  0.00    +0.074 A 
ENDROOT
BRANCH   5  11
ATOM     11  C14 CHE B   04     25.251  69.951   1.723  0.00  0.00    +0.033 A 
ATOM     12  C15 CHE B   04     25.635  69.280   2.400  0.00  0.00    +0.048 A 
ATOM     13  C16 CHE B   04     25.408  69.551   2.645  0.00  0.00    +0.057 C 
ATOM     14  C17 CHE B   04     25.647  69.479   1.296  0.00  0.00    +0.029 C 
ATOM     15  C18 CHE B   04     26.248  68.549   1.740  0.00  0.00    +0.144 C 
ATOM     16  N2  CHE B   04     26.100  68.726   1.899  0.00  0.00    -0.267 N 
ATOM     17  N3  CHE B   04     25.754  69.564   0.088  0.00  0.00    -0.169 NA
ATOM     18  C19 CHE B   04     26.436  67.900   3.722  0.00  0.00    +0.119 A 
BRANCH  18  19
ATOM     19  C20 CHE B   04     25.758  69.346   1.176  0.00  0.00    +0.091 A 
ATOM     20  C21 CHE B   04     27.795  65.265   6.520  0.00  0.00    +0.030 A 
ATOM     21  C22 CHE B   04     26.346  68.301   1.550  0.00  0.00    +0.004 A 
ATOM     22  C23 CHE B   04     26.387  68.108   2.642  0.00  0.00    +0.020 A 
ATOM     23  C24 CHE B   04     26.623  67.480   4.622  0.00  0.00    +0.111 A 
ATOM     24  N4  CHE B   04     26.574  67.555   4.686  0.00  0.00    -0.253 NA
ENDBRANCH  18  19
ENDBRANCH   5  11
BRANCH   1  25
ATOM     25  O1  CHE B   04     22.563  69.969   9.362  0.00  0.00    -0.492 OA
BRANCH  25  26
ATOM     26  C8  CHE B   04     20.691  69.987   8.179  0.00  0.00    +0.229 C 
BRANCH  26  27
ATOM     27  C7  CHE B   04     21.740  68.786  12.116  0.00  0.00    +0.039 C 
BRANCH  27  28
ATOM     28  C6  CHE B   04     17.821  68.451   4.016  0.00  0.00    -0.012 C 
BRANCH  28  34
ATOM     29  C1  CHE B   04     17.809  67.384   8.510  0.00  0.00    -0.096 C 
ATOM     30  N1  CHE B   04     17.031  67.000   6.704  0.00  0.00    +0.380 N 
ATOM     31  C2  CHE B   04     17.371  66.608   9.878  0.00  0.00    -0.079 C 
ATOM     32  C3  CHE B   04     17.676  66.965   9.706  0.00  0.00    -0.020 C 
ATOM     33  C4  CHE B   04     18.237  67.883   8.270  0.00  0.00    -0.017 C 
ATOM     34  C5  CHE B   04     19.420  68.477  10.971  0.00  0.00    -0.069 C 
ATOM     35  H4  CHE B   04     16.228  66.588   4.911  0.00  0.00    -0.082 HD
ENDBRANCH  28  34
ENDBRANCH  27  28
ENDBRANCH  26  27
ENDBRANCH  25  26
ENDBRANCH   1  25
TORSDOF 7
ENDMDL
