MODEL 1
REMARK VINA RESULT:     -10.0      0.000      0.000
REMARK  Name = dock_mp/CHEMBL4/CHEMBL480742.pdb
REMARK  3 active torsions:
REMARK  status: ('A' for Active; 'I' for Inactive)
REMARK    1  A    between atoms: C1_1  and  C2_2
REMARK    2  A    between atoms: C3_4  and  C4_5
REMARK    3  A    between atoms: C6_10  and  C7_11
REMARK                            x       y       z     vdW  Elec       q    Type
REMARK                         _______ _______ _______ _____ _____    ______ ____
ROOT
ATOM      1  C4  CHE B   07     16.183  66.514   7.093  0.00  0.00    +0.117 A 
ATOM      2  N2  CHE B   07     16.291  66.878   5.963  0.00  0.00    -0.213 NA
ATOM      3  C5  CHE B   07     17.307  67.750   5.967  0.00  0.00    +0.191 A 
ATOM      4  N3  CHE B   07     16.645  67.076   6.405  0.00  0.00    -0.329 N 
ATOM      5  N4  CHE B   07     18.511  68.728   6.208  0.00  0.00    -0.326 N 
ATOM      6  C6  CHE B   07     15.980  65.792   9.369  0.00  0.00    +0.077 A 
ATOM      7  H4  CHE B   07     15.688  66.237   6.474  0.00  0.00    +0.145 HD
ATOM      8  H5  CHE B   07     18.453  69.000   4.871  0.00  0.00    +0.145 HD
ATOM      9  H6  CHE B   07     20.041  70.192   5.591  0.00  0.00    +0.169 HD
ENDROOT
BRANCH   6  10
ATOM     10  C7  CHE B   07     17.125  66.737   9.536  0.00  0.00    +0.003 A 
ATOM     11  C8  CHE B   07     16.375  67.548  10.351  0.00  0.00    +0.012 A 
ATOM     12  C9  CHE B   07     18.438  68.426  10.120  0.00  0.00    +0.030 A 
ATOM     13  C10 CHE B   07     19.389  68.506   9.803  0.00  0.00    +0.089 A 
ATOM     14  N5  CHE B   07     22.377  69.353   9.194  0.00  0.00    -0.252 NA
ATOM     15  C11 CHE B   07     24.271  69.478   8.542  0.00  0.00    +0.131 A 
ATOM     16  C12 CHE B   07     25.023  68.675   7.732  0.00  0.00    +0.131 A 
ATOM     17  N6  CHE B   07     18.305  67.835   9.789  0.00  0.00    -0.252 NA
ATOM     18  C13 CHE B   07     21.076  67.715   8.639  0.00  0.00    +0.090 A 
ATOM     19  C14 CHE B   07     19.944  66.830   8.505  0.00  0.00    +0.040 A 
ENDBRANCH   6  10
BRANCH   1  23
ATOM     20  C1  CHE B   07     14.061  64.852   5.551  0.00  0.00    +0.068 C 
ATOM     21  C2  CHE B   07     17.955  69.270   1.665  0.00  0.00    +0.074 A 
ATOM     22  N1  CHE B   07     16.827  67.733   4.055  0.00  0.00    -0.247 NA
ATOM     23  C3  CHE B   07     17.763  68.614   4.009  0.00  0.00    +0.092 A 
ATOM     24  C15 CHE B   07     16.435  66.945   6.130  0.00  0.00    +0.033 A 
ATOM     25  C16 CHE B   07     18.534  69.652   2.440  0.00  0.00    +0.042 A 
ATOM     26  C17 CHE B   07     17.598  68.770   2.486  0.00  0.00    +0.144 A 
ATOM     27  F1  CHE B   07     16.309  67.392   3.361  0.00  0.00    -0.204 F 
ENDBRANCH   1  23
TORSDOF 2
ENDMDL
MODEL 2
REMARK VINA RESULT:      -9.8      2.503      3.601
REMARK  Name = dock_mp/CHEMBL4/CHEMBL480742.pdb
REMARK  3 active torsions:
REMARK  status: ('A' for Active; 'I' for Inactive)
REMARK    1  A    between atoms: C1_1  and  C2_2
REMARK    2  A    between atoms: C3_4  and  C4_5
REMARK    3  A    between atoms: C6_10  and  C7_11
REMARK                            x       y       z     vdW  Elec       q    Type
REMARK                         _______ _______ _______ _____ _____    ______ ____
ROOT
ATOM      1  C4  CHE B   07     17.218  68.586   4.214  0.00  0.00    +0.117 A 
ATOM      2  N2  CHE B   07     18.104  68.883   3.473  0.00  0.00    -0.213 NA
ATOM      3  C5  CHE B   07     19.221  68.798   4.206  0.00  0.00    +0.191 A 
ATOM      4  N3  CHE B   07     18.194  68.734   4.047  0.00  0.00    -0.329 N 
ATOM      5  N4  CHE B   07     20.386  68.634   5.246  0.00  0.00    -0.326 N 
ATOM      6  C6  CHE B   07     15.448  67.987   5.715  0.00  0.00    +0.077 A 
ATOM      7  H4  CHE B   07     17.092  68.794   3.410  0.00  0.00    +0.145 HD
ATOM      8  H5  CHE B   07     21.230  69.000   4.237  0.00  0.00    +0.145 HD
ATOM      9  H6  CHE B   07     22.492  68.675   5.899  0.00  0.00    +0.169 HD
ENDROOT
BRANCH   6  10
ATOM     10  C7  CHE B   07     16.598  67.848   6.658  0.00  0.00    +0.003 A 
ATOM     11  C8  CHE B   07     16.317  66.519   6.851  0.00  0.00    +0.012 A 
ATOM     12  C9  CHE B   07     18.116  67.085   8.084  0.00  0.00    +0.030 A 
ATOM     13  C10 CHE B   07     18.838  67.670   8.469  0.00  0.00    +0.089 A 
ATOM     14  N5  CHE B   07     21.304  68.914  10.015  0.00  0.00    -0.252 NA
ATOM     15  C11 CHE B   07     22.731  70.112  10.761  0.00  0.00    +0.131 A 
ATOM     16  C12 CHE B   07     23.016  71.434  10.574  0.00  0.00    +0.131 A 
ATOM     17  N6  CHE B   07     17.824  67.580   7.702  0.00  0.00    -0.252 NA
ATOM     18  C13 CHE B   07     19.811  69.634   8.622  0.00  0.00    +0.090 A 
ATOM     19  C14 CHE B   07     18.691  69.723   7.717  0.00  0.00    +0.040 A 
ENDBRANCH   6  10
BRANCH   1  23
ATOM     20  C1  CHE B   07     15.796  69.162   1.514  0.00  0.00    +0.068 C 
ATOM     21  C2  CHE B   07     22.814  69.903   1.538  0.00  0.00    +0.074 A 
ATOM     22  N1  CHE B   07     19.951  69.350   2.459  0.00  0.00    -0.247 NA
ATOM     23  C3  CHE B   07     21.055  69.290   3.117  0.00  0.00    +0.092 A 
ATOM     24  C15 CHE B   07     18.139  68.824   3.693  0.00  0.00    +0.033 A 
ATOM     25  C16 CHE B   07     22.969  69.651   2.535  0.00  0.00    +0.042 A 
ATOM     26  C17 CHE B   07     21.864  69.710   1.877  0.00  0.00    +0.144 A 
ATOM     27  F1  CHE B   07     19.812  69.575   1.568  0.00  0.00    -0.204 F 
ENDBRANCH   1  23
TORSDOF 2
ENDMDL
MODEL 3
REMARK VINA RESULT:      -9.6      1.956      5.733
REMARK  Name = dock_mp/CHEMBL4/CHEMBL480742.pdb
REMARK  3 active torsions:
REMARK  status: ('A' for Active; 'I' for Inactive)
REMARK    1  A    between atoms: C1_1  and  C2_2
REMARK    2  A    between atoms: C3_4  and  C4_5
REMARK    3  A    between atoms: C6_10  and  C7_11
REMARK                            x       y       z     vdW  Elec       q    Type
REMARK                         _______ _______ _______ _____ _____    ______ ____
ROOT
ATOM      1  C4  CHE B   07     19.009  68.537   7.897  0.00  0.00    +0.117 A 
ATOM      2  N2  CHE B   07     19.332  68.859   6.795  0.00  0.00    -0.213 NA
ATOM      3  C5  CHE B   07     18.261  68.621   6.029  0.00  0.00    +0.191 A 
ATOM      4  N3  CHE B   07     18.789  68.641   6.926  0.00  0.00    -0.329 N 
ATOM      5  N4  CHE B   07     16.899  68.268   5.332  0.00  0.00    -0.326 N 
ATOM      6  C6  CHE B   07     18.343  67.885  10.105  0.00  0.00    +0.077 A 
ATOM      7  H4  CHE B   07     19.770  68.842   7.714  0.00  0.00    +0.145 HD
ATOM      8  H5  CHE B   07     17.477  68.692   4.169  0.00  0.00    +0.145 HD
ATOM      9  H6  CHE B   07     15.526  68.102   3.614  0.00  0.00    +0.169 HD
ENDROOT
BRANCH   6  10
ATOM     10  C7  CHE B   07     17.073  67.568   9.386  0.00  0.00    +0.003 A 
ATOM     11  C8  CHE B   07     16.369  68.432  10.188  0.00  0.00    +0.012 A 
ATOM     12  C9  CHE B   07     14.964  67.483   8.703  0.00  0.00    +0.030 A 
ATOM     13  C10 CHE B   07     14.666  66.897   7.943  0.00  0.00    +0.089 A 
ATOM     14  N5  CHE B   07     13.087  65.327   5.693  0.00  0.00    -0.252 NA
ATOM     15  C11 CHE B   07     12.529  64.143   4.172  0.00  0.00    +0.131 A 
ATOM     16  C12 CHE B   07     13.222  63.282   3.371  0.00  0.00    +0.131 A 
ATOM     17  N6  CHE B   07     15.628  67.299   8.675  0.00  0.00    -0.252 NA
ATOM     18  C13 CHE B   07     15.138  65.428   6.379  0.00  0.00    +0.090 A 
ATOM     19  C14 CHE B   07     16.341  65.764   7.100  0.00  0.00    +0.040 A 
ENDBRANCH   6  10
BRANCH   1  23
ATOM     20  C1  CHE B   07     22.093  68.834   8.099  0.00  0.00    +0.068 C 
ATOM     21  C2  CHE B   07     19.328  69.560   1.648  0.00  0.00    +0.074 A 
ATOM     22  N1  CHE B   07     19.584  69.110   4.661  0.00  0.00    -0.247 NA
ATOM     23  C3  CHE B   07     18.537  69.117   3.914  0.00  0.00    +0.092 A 
ATOM     24  C15 CHE B   07     19.137  68.718   6.835  0.00  0.00    +0.033 A 
ATOM     25  C16 CHE B   07     18.334  69.412   1.914  0.00  0.00    +0.042 A 
ATOM     26  C17 CHE B   07     19.382  69.405   2.661  0.00  0.00    +0.144 A 
ATOM     27  F1  CHE B   07     20.474  69.243   4.423  0.00  0.00    -0.204 F 
ENDBRANCH   1  23
TORSDOF 2
ENDMDL
MODEL 4
REMARK VINA RESULT:      -9.4      2.893      6.071
REMARK  Name = dock_mp/CHEMBL4/CHEMBL480742.pdb
REMARK  3 active torsions:
REMARK  status: ('A' for Active; 'I' for Inactive)
REMARK    1  A    between atoms: C1_1  and  C2_2
REMARK    2  A    between atoms: C3_4  and  C4_5
REMARK    3  A    between atoms: C6_10  and  C7_11
REMARK                            x       y       z     vdW  Elec       q    Type
REMARK                         _______ _______ _______ _____ _____    ______ ____
ROOT
ATOM      1  C4  CHE B   07     18.295  67.295   9.565  0.00  0.00    +0.117 A 
ATOM      2  N2  CHE B   07     19.217  67.866  10.061  0.00  0.00    -0.213 NA
ATOM      3  C5  CHE B   07     19.678  68.686   9.109  0.00  0.00    +0.191 A 
ATOM      4  N3  CHE B   07     19.037  67.963   9.497  0.00  0.00    -0.329 N 
ATOM      5  N4  CHE B   07     20.042  69.559   7.856  0.00  0.00    -0.326 N 
ATOM      6  C6  CHE B   07     16.443  66.157   8.556  0.00  0.00    +0.077 A 
ATOM      7  H4  CHE B   07     18.547  67.159  10.355  0.00  0.00    +0.145 HD
ATOM      8  H5  CHE B   07     21.049  70.084   8.614  0.00  0.00    +0.145 HD
ATOM      9  H6  CHE B   07     21.218  71.062   6.750  0.00  0.00    +0.169 HD
ENDROOT
BRANCH   6  10
ATOM     10  C7  CHE B   07     16.837  67.014   7.397  0.00  0.00    +0.003 A 
ATOM     11  C8  CHE B   07     15.593  67.592   7.363  0.00  0.00    +0.012 A 
ATOM     12  C9  CHE B   07     16.871  68.479   5.732  0.00  0.00    +0.030 A 
ATOM     13  C10 CHE B   07     17.684  68.629   5.160  0.00  0.00    +0.089 A 
ATOM     14  N5  CHE B   07     19.829  69.574   3.033  0.00  0.00    -0.252 NA
ATOM     15  C11 CHE B   07     21.472  69.845   1.914  0.00  0.00    +0.131 A 
ATOM     16  C12 CHE B   07     22.712  69.274   1.941  0.00  0.00    +0.131 A 
ATOM     17  N6  CHE B   07     17.157  67.996   6.133  0.00  0.00    -0.252 NA
ATOM     18  C13 CHE B   07     19.771  68.151   4.663  0.00  0.00    +0.090 A 
ATOM     19  C14 CHE B   07     19.347  67.343   5.781  0.00  0.00    +0.040 A 
ENDBRANCH   6  10
BRANCH   1  23
ATOM     20  C1  CHE B   07     17.573  67.181  12.583  0.00  0.00    +0.068 C 
ATOM     21  C2  CHE B   07     22.972  71.379  10.847  0.00  0.00    +0.074 A 
ATOM     22  N1  CHE B   07     20.641  69.412  10.634  0.00  0.00    -0.247 NA
ATOM     23  C3  CHE B   07     21.400  69.894   9.714  0.00  0.00    +0.092 A 
ATOM     24  C15 CHE B   07     19.076  67.989   9.856  0.00  0.00    +0.033 A 
ATOM     25  C16 CHE B   07     22.954  71.200   9.823  0.00  0.00    +0.042 A 
ATOM     26  C17 CHE B   07     22.195  70.718  10.743  0.00  0.00    +0.144 A 
ATOM     27  F1  CHE B   07     20.657  69.573  11.550  0.00  0.00    -0.204 F 
ENDBRANCH   1  23
TORSDOF 2
ENDMDL
MODEL 5
REMARK VINA RESULT:      -7.2      3.163      4.221
REMARK  Name = dock_mp/CHEMBL4/CHEMBL480742.pdb
REMARK  3 active torsions:
REMARK  status: ('A' for Active; 'I' for Inactive)
REMARK    1  A    between atoms: C1_1  and  C2_2
REMARK    2  A    between atoms: C3_4  and  C4_5
REMARK    3  A    between atoms: C6_10  and  C7_11
REMARK                            x       y       z     vdW  Elec       q    Type
REMARK                         _______ _______ _______ _____ _____    ______ ____
ROOT
ATOM      1  C4  CHE B   07     19.083  69.578   6.214  0.00  0.00    +0.117 A 
ATOM      2  N2  CHE B   07     19.763  69.844   5.271  0.00  0.00    -0.213 NA
ATOM      3  C5  CHE B   07     21.019  69.591   5.659  0.00  0.00    +0.191 A 
ATOM      4  N3  CHE B   07     19.988  69.642   5.789  0.00  0.00    -0.329 N 
ATOM      5  N4  CHE B   07     22.395  69.230   6.322  0.00  0.00    -0.326 N 
ATOM      6  C6  CHE B   07     17.731  69.040   8.117  0.00  0.00    +0.077 A 
ATOM      7  H4  CHE B   07     18.769  69.861   5.488  0.00  0.00    +0.145 HD
ATOM      8  H5  CHE B   07     22.971  69.590   5.138  0.00  0.00    +0.145 HD
ATOM      9  H6  CHE B   07     24.590  69.010   6.363  0.00  0.00    +0.169 HD
ENDROOT
BRANCH   6  10
ATOM     10  C7  CHE B   07     19.069  68.712   8.695  0.00  0.00    +0.003 A 
ATOM     11  C8  CHE B   07     18.752  67.378   8.748  0.00  0.00    +0.012 A 
ATOM     12  C9  CHE B   07     20.841  67.680   9.540  0.00  0.00    +0.030 A 
ATOM     13  C10 CHE B   07     21.676  68.171   9.807  0.00  0.00    +0.089 A 
ATOM     14  N5  CHE B   07     24.535  69.070  10.826  0.00  0.00    -0.252 NA
ATOM     15  C11 CHE B   07     26.185  70.085  11.348  0.00  0.00    +0.131 A 
ATOM     16  C12 CHE B   07     26.507  71.411  11.298  0.00  0.00    +0.131 A 
ATOM     17  N6  CHE B   07     20.497  68.239   9.328  0.00  0.00    -0.252 NA
ATOM     18  C13 CHE B   07     22.793  70.054  10.000  0.00  0.00    +0.090 A 
ATOM     19  C14 CHE B   07     21.490  70.324   9.444  0.00  0.00    +0.040 A 
ENDBRANCH   6  10
BRANCH   1  23
ATOM     20  C1  CHE B   07     17.248  68.471   3.967  0.00  0.00    +0.068 C 
ATOM     21  C2  CHE B   07     23.921  69.839   2.123  0.00  0.00    +0.074 A 
ATOM     22  N1  CHE B   07     21.366  69.568   3.780  0.00  0.00    -0.247 NA
ATOM     23  C3  CHE B   07     22.533  69.984   4.127  0.00  0.00    +0.092 A 
ATOM     24  C15 CHE B   07     19.865  69.596   5.462  0.00  0.00    +0.033 A 
ATOM     25  C16 CHE B   07     24.247  70.176   3.052  0.00  0.00    +0.042 A 
ATOM     26  C17 CHE B   07     23.080  69.759   2.706  0.00  0.00    +0.144 A 
ATOM     27  F1  CHE B   07     21.074  69.266   2.950  0.00  0.00    -0.204 F 
ENDBRANCH   1  23
TORSDOF 2
ENDMDL
