REMARK  Name = dock_mp/CHEMBL2/CHEMBL205158.pdb
REMARK  7 active torsions:
REMARK  status: ('A' for Active; 'I' for Inactive)
REMARK    1  A    between atoms: N1_3  and  C3_4
REMARK    2  A    between atoms: C3_4  and  C4_5
REMARK    3  A    between atoms: C4_5  and  O1_6
REMARK    4  A    between atoms: O1_6  and  C5_7
REMARK    5  A    between atoms: C8_10  and  C9_11
REMARK    6  A    between atoms: C11_13  and  C12_14
REMARK    7  A    between atoms: C14_18  and  C15_19
REMARK                            x       y       z     vdW  Elec       q    Type
REMARK                         _______ _______ _______ _____ _____    ______ ____
ROOT
ATOM      1  C9  CHE B   01      1.000   1.830   6.000  0.00  0.00    +0.072 A 
ATOM      2  C10 CHE B   01      1.000   2.930   3.000  0.00  0.00    +0.037 A 
ATOM      3  C11 CHE B   01      1.000   4.210   2.000  0.00  0.00    -0.011 A 
ATOM      4  C20 CHE B   01      1.000   4.390   9.000  0.00  0.00    +0.028 A 
ATOM      5  C21 CHE B   01      1.000   3.290   5.000  0.00  0.00    +0.112 A 
ATOM      6  N5  CHE B   01      1.000   2.060   5.000  0.00  0.00    -0.255 NA
ENDROOT
BRANCH   1  10
ATOM      7  C5  CHE B   01      1.000  -2.190   9.000  0.00  0.00    +0.120 A 
ATOM      8  C6  CHE B   01      1.000  -1.830   2.000  0.00  0.00    +0.046 A 
ATOM      9  C7  CHE B   01      1.000  -0.520   3.000  0.00  0.00    +0.013 A 
ATOM     10  C8  CHE B   01      1.000   0.460   8.000  0.00  0.00    +0.001 A 
ATOM     11  C22 CHE B   01      1.000   0.150   9.000  0.00  0.00    +0.013 A 
ATOM     12  C23 CHE B   01      1.000  -1.150   8.000  0.00  0.00    +0.046 A 
BRANCH   7  13
ATOM     13  O1  CHE B   01      1.000  -3.450   8.000  0.00  0.00    -0.494 OA
BRANCH  13  14
ATOM     14  C4  CHE B   01      1.000  -4.680   7.000  0.00  0.00    +0.210 C 
BRANCH  14  15
ATOM     15  C3  CHE B   01      1.000  -5.120   8.000  0.00  0.00    -0.037 C 
BRANCH  15  18
ATOM     16  C1  CHE B   01      1.000  -4.640   1.000  0.00  0.00    +0.141 C 
ATOM     17  C2  CHE B   01      1.000  -4.740   4.000  0.00  0.00    -0.050 C 
ATOM     18  N1  CHE B   01      1.000  -5.220   7.000  0.00  0.00    +0.385 N 
ATOM     19  C24 CHE B   01      1.000  -6.610   1.000  0.00  0.00    -0.050 C 
ATOM     20  C25 CHE B   01      1.000  -6.870   8.000  0.00  0.00    +0.141 C 
ATOM     21  O2  CHE B   01      1.000  -5.870   8.000  0.00  0.00    -0.383 OA
ATOM     22  H5  CHE B   01      1.000  -4.670   0.000  0.00  0.00    -0.081 HD
ENDBRANCH  15  18
ENDBRANCH  14  15
ENDBRANCH  13  14
ENDBRANCH   7  13
ENDBRANCH   1  10
BRANCH   3  23
ATOM     23  C12 CHE B   01      1.000   5.350   4.000  0.00  0.00    +0.029 A 
ATOM     24  C13 CHE B   01      1.000   5.870   2.000  0.00  0.00    +0.114 A 
ATOM     25  N2  CHE B   01      1.000   6.930   1.000  0.00  0.00    -0.284 N 
ATOM     26  N3  CHE B   01      1.000   7.080   6.000  0.00  0.00    -0.172 NA
ATOM     27  C14 CHE B   01      1.000   6.140   9.000  0.00  0.00    +0.118 A 
ATOM     28  H14 CHE B   01      1.000   7.500   0.000  0.00  0.00    +0.188 HD
BRANCH  27  29
ATOM     29  C15 CHE B   01      1.000   5.920   3.000  0.00  0.00    +0.091 A 
ATOM     30  C16 CHE B   01      1.000   4.710   7.000  0.00  0.00    +0.030 A 
ATOM     31  C17 CHE B   01      1.000   4.360   2.000  0.00  0.00    +0.004 A 
ATOM     32  C18 CHE B   01      1.000   5.270   3.000  0.00  0.00    +0.020 A 
ATOM     33  C19 CHE B   01      1.000   6.470   7.000  0.00  0.00    +0.111 A 
ATOM     34  N4  CHE B   01      1.000   6.780   1.000  0.00  0.00    -0.253 NA
ENDBRANCH  27  29
ENDBRANCH   3  23
TORSDOF 7
