REMARK  Name = dock_mp/CHEMBL2/CHEMBL261674.pdb
REMARK  8 active torsions:
REMARK  status: ('A' for Active; 'I' for Inactive)
REMARK    1  A    between atoms: C1_1  and  N1_2
REMARK    2  A    between atoms: N2_5  and  C4_6
REMARK    3  A    between atoms: C4_6  and  C5_7
REMARK    4  A    between atoms: C5_7  and  C6_8
REMARK    5  A    between atoms: C6_8  and  O1_9
REMARK    6  A    between atoms: O1_9  and  C7_10
REMARK    7  A    between atoms: C11_14  and  C12_15
REMARK    8  A    between atoms: C17_22  and  C18_23
REMARK                            x       y       z     vdW  Elec       q    Type
REMARK                         _______ _______ _______ _____ _____    ______ ____
ROOT
ATOM      1  C7  CHE B   06      1.000   0.050   8.000  0.00  0.00    +0.123 A 
ATOM      2  C8  CHE B   06      1.000  -0.830   2.000  0.00  0.00    +0.046 A 
ATOM      3  C9  CHE B   06      1.000  -2.170   6.000  0.00  0.00    +0.014 A 
ATOM      4  C10 CHE B   06      1.000  -2.630   5.000  0.00  0.00    +0.008 A 
ATOM      5  C11 CHE B   06      1.000  -3.970   1.000  0.00  0.00    -0.003 A 
ATOM      6  C23 CHE B   06      1.000  -4.420   1.000  0.00  0.00    +0.029 A 
ATOM      7  C24 CHE B   06      1.000  -3.500   5.000  0.00  0.00    +0.112 A 
ATOM      8  N6  CHE B   06      1.000  -2.210   7.000  0.00  0.00    -0.255 NA
ATOM      9  C25 CHE B   06      1.000  -1.750   9.000  0.00  0.00    +0.075 A 
ATOM     10  C26 CHE B   06      1.000  -0.440   2.000  0.00  0.00    +0.074 A 
ENDROOT
BRANCH   5  11
ATOM     11  C12 CHE B   06      1.000  -4.950   1.000  0.00  0.00    +0.033 A 
ATOM     12  C13 CHE B   06      1.000  -5.620   3.000  0.00  0.00    +0.048 A 
ATOM     13  C14 CHE B   06      1.000  -5.760   2.000  0.00  0.00    +0.057 C 
ATOM     14  C15 CHE B   06      1.000  -7.100   7.000  0.00  0.00    +0.029 C 
ATOM     15  C16 CHE B   06      1.000  -7.160   3.000  0.00  0.00    +0.144 C 
ATOM     16  N3  CHE B   06      1.000  -6.420   1.000  0.00  0.00    -0.267 N 
ATOM     17  N4  CHE B   06      1.000  -6.280   2.000  0.00  0.00    -0.169 NA
ATOM     18  C17 CHE B   06      1.000  -5.370   8.000  0.00  0.00    +0.119 A 
BRANCH  18  19
ATOM     19  C18 CHE B   06      1.000  -4.930   1.000  0.00  0.00    +0.091 A 
ATOM     20  C19 CHE B   06      1.000  -5.200   2.000  0.00  0.00    +0.030 A 
ATOM     21  C20 CHE B   06      1.000  -4.820   0.000  0.00  0.00    +0.004 A 
ATOM     22  C21 CHE B   06      1.000  -4.150   9.000  0.00  0.00    +0.020 A 
ATOM     23  C22 CHE B   06      1.000  -3.880   9.000  0.00  0.00    +0.111 A 
ATOM     24  N5  CHE B   06      1.000  -4.280   4.000  0.00  0.00    -0.253 NA
ENDBRANCH  18  19
ENDBRANCH   5  11
BRANCH   1  25
ATOM     25  O1  CHE B   06      1.000   1.400   7.000  0.00  0.00    -0.492 OA
BRANCH  25  26
ATOM     26  C6  CHE B   06      1.000   1.900   8.000  0.00  0.00    +0.227 C 
BRANCH  26  27
ATOM     27  C5  CHE B   06      1.000   3.390   9.000  0.00  0.00    +0.022 C 
BRANCH  27  28
ATOM     28  C4  CHE B   06      1.000   3.780   9.000  0.00  0.00    -0.076 C 
BRANCH  28  33
ATOM     29  C1  CHE B   06      1.000   8.770   7.000  0.00  0.00    -0.096 C 
ATOM     30  N1  CHE B   06      1.000   7.970   2.000  0.00  0.00    +0.375 N 
ATOM     31  C2  CHE B   06      1.000   7.280   5.000  0.00  0.00    -0.098 C 
ATOM     32  C3  CHE B   06      1.000   5.800   6.000  0.00  0.00    -0.098 C 
ATOM     33  N2  CHE B   06      1.000   5.220   5.000  0.00  0.00    +0.377 N 
ATOM     34  C27 CHE B   06      1.000   5.880   8.000  0.00  0.00    -0.098 C 
ATOM     35  C28 CHE B   06      1.000   6.980   3.000  0.00  0.00    -0.098 C 
ATOM     36  H4  CHE B   06      1.000   8.610   5.000  0.00  0.00    -0.082 HD
ATOM     37  H9  CHE B   06      1.000   5.410   3.000  0.00  0.00    -0.082 HD
ENDBRANCH  28  33
ENDBRANCH  27  28
ENDBRANCH  26  27
ENDBRANCH  25  26
ENDBRANCH   1  25
TORSDOF 7
