REMARK  Name = dock_mp/CHEMBL2/CHEMBL205271.pdb
REMARK  6 active torsions:
REMARK  status: ('A' for Active; 'I' for Inactive)
REMARK    1  A    between atoms: C1_1  and  N1_2
REMARK    2  A    between atoms: N1_2  and  C2_3
REMARK    3  A    between atoms: C7_9  and  C8_11
REMARK    4  A    between atoms: C11_14  and  C12_15
REMARK    5  A    between atoms: C14_17  and  C15_18
REMARK    6  A    between atoms: C17_22  and  C18_23
REMARK                            x       y       z     vdW  Elec       q    Type
REMARK                         _______ _______ _______ _____ _____    ______ ____
ROOT
ATOM      1  C12 CHE B   02      1.000   2.000   1.000  0.00  0.00    +0.072 A 
ATOM      2  C13 CHE B   02      1.000   3.030   1.000  0.00  0.00    +0.037 A 
ATOM      3  C14 CHE B   02      1.000   4.340   2.000  0.00  0.00    -0.011 A 
ATOM      4  C23 CHE B   02      1.000   4.630   4.000  0.00  0.00    +0.028 A 
ATOM      5  C24 CHE B   02      1.000   3.600   9.000  0.00  0.00    +0.112 A 
ATOM      6  N5  CHE B   02      1.000   2.330   8.000  0.00  0.00    -0.255 NA
ENDROOT
BRANCH   1  10
ATOM      7  C8  CHE B   02      1.000  -2.120   0.000  0.00  0.00    +0.037 A 
ATOM      8  C9  CHE B   02      1.000  -1.130   3.000  0.00  0.00    +0.014 A 
ATOM      9  C10 CHE B   02      1.000   0.190   9.000  0.00  0.00    +0.011 A 
ATOM     10  C11 CHE B   02      1.000   0.620   0.000  0.00  0.00    +0.000 A 
ATOM     11  C25 CHE B   02      1.000  -0.330   8.000  0.00  0.00    +0.011 A 
ATOM     12  C26 CHE B   02      1.000  -1.680   5.000  0.00  0.00    +0.014 A 
BRANCH   7  15
ATOM     13  C1  CHE B   02      1.000  -4.680   7.000  0.00  0.00    +0.132 C 
ATOM     14  N1  CHE B   02      1.000  -4.600   4.000  0.00  0.00    -0.297 N 
ATOM     15  C7  CHE B   02      1.000  -3.470   1.000  0.00  0.00    +0.247 C 
ATOM     16  O2  CHE B   02      1.000  -3.670   4.000  0.00  0.00    -0.270 OA
BRANCH  14  17
ATOM     17  C2  CHE B   02      1.000  -5.860   1.000  0.00  0.00    +0.080 C 
ATOM     18  C3  CHE B   02      1.000  -6.850   4.000  0.00  0.00    +0.050 C 
ATOM     19  C4  CHE B   02      1.000  -7.920   1.000  0.00  0.00    +0.161 C 
ATOM     20  O1  CHE B   02      1.000  -8.580   2.000  0.00  0.00    -0.380 OA
ATOM     21  C5  CHE B   02      1.000  -7.990   2.000  0.00  0.00    +0.161 C 
ATOM     22  C6  CHE B   02      1.000  -6.480   2.000  0.00  0.00    +0.050 C 
ENDBRANCH  14  17
ENDBRANCH   7  15
ENDBRANCH   1  10
BRANCH   3  23
ATOM     23  C15 CHE B   02      1.000   5.350   2.000  0.00  0.00    +0.029 A 
ATOM     24  C16 CHE B   02      1.000   5.450   8.000  0.00  0.00    +0.114 A 
ATOM     25  N2  CHE B   02      1.000   6.540   2.000  0.00  0.00    -0.284 N 
ATOM     26  N3  CHE B   02      1.000   7.110   1.000  0.00  0.00    -0.172 NA
ATOM     27  C17 CHE B   02      1.000   6.390   6.000  0.00  0.00    +0.118 A 
ATOM     28  H17 CHE B   02      1.000   6.830   2.000  0.00  0.00    +0.188 HD
BRANCH  27  29
ATOM     29  C18 CHE B   02      1.000   6.760   2.000  0.00  0.00    +0.091 A 
ATOM     30  C19 CHE B   02      1.000   6.660   8.000  0.00  0.00    +0.030 A 
ATOM     31  C20 CHE B   02      1.000   7.000   7.000  0.00  0.00    +0.004 A 
ATOM     32  C21 CHE B   02      1.000   7.430   4.000  0.00  0.00    +0.020 A 
ATOM     33  C22 CHE B   02      1.000   7.510   8.000  0.00  0.00    +0.111 A 
ATOM     34  N4  CHE B   02      1.000   7.180   0.000  0.00  0.00    -0.253 NA
ENDBRANCH  27  29
ENDBRANCH   3  23
TORSDOF 5
