REMARK  Name = dock_mp/CHEMBL2/CHEMBL202994.pdb
REMARK  7 active torsions:
REMARK  status: ('A' for Active; 'I' for Inactive)
REMARK    1  A    between atoms: N1_4  and  C4_5
REMARK    2  A    between atoms: C4_5  and  C5_6
REMARK    3  A    between atoms: C5_6  and  O1_7
REMARK    4  A    between atoms: O1_7  and  C6_8
REMARK    5  A    between atoms: C9_11  and  C10_12
REMARK    6  A    between atoms: C12_14  and  C13_15
REMARK    7  A    between atoms: C15_19  and  C16_20
REMARK                            x       y       z     vdW  Elec       q    Type
REMARK                         _______ _______ _______ _____ _____    ______ ____
ROOT
ATOM      1  C10 CHE B   09      1.000   1.970   3.000  0.00  0.00    +0.072 A 
ATOM      2  C11 CHE B   09      1.000   2.790   2.000  0.00  0.00    +0.037 A 
ATOM      3  C12 CHE B   09      1.000   4.180   4.000  0.00  0.00    -0.011 A 
ATOM      4  C21 CHE B   09      1.000   4.740   2.000  0.00  0.00    +0.028 A 
ATOM      5  C22 CHE B   09      1.000   3.920   0.000  0.00  0.00    +0.112 A 
ATOM      6  N5  CHE B   09      1.000   2.580   3.000  0.00  0.00    -0.255 NA
ENDROOT
BRANCH   1  10
ATOM      7  C6  CHE B   09      1.000  -2.270   3.000  0.00  0.00    +0.120 A 
ATOM      8  C7  CHE B   09      1.000  -1.540   6.000  0.00  0.00    +0.046 A 
ATOM      9  C8  CHE B   09      1.000  -0.160   8.000  0.00  0.00    +0.013 A 
ATOM     10  C9  CHE B   09      1.000   0.530   4.000  0.00  0.00    +0.001 A 
ATOM     11  C23 CHE B   09      1.000  -0.220   6.000  0.00  0.00    +0.013 A 
ATOM     12  C24 CHE B   09      1.000  -1.610   6.000  0.00  0.00    +0.046 A 
BRANCH   7  13
ATOM     13  O1  CHE B   09      1.000  -3.660   4.000  0.00  0.00    -0.494 OA
BRANCH  13  14
ATOM     14  C5  CHE B   09      1.000  -4.410   7.000  0.00  0.00    +0.210 C 
BRANCH  14  15
ATOM     15  C4  CHE B   09      1.000  -5.890   2.000  0.00  0.00    -0.037 C 
BRANCH  15  19
ATOM     16  C1  CHE B   09      1.000  -6.380   9.000  0.00  0.00    -0.020 C 
ATOM     17  C2  CHE B   09      1.000  -7.810   8.000  0.00  0.00    -0.020 C 
ATOM     18  C3  CHE B   09      1.000  -7.540   2.000  0.00  0.00    -0.079 C 
ATOM     19  N1  CHE B   09      1.000  -6.370   9.000  0.00  0.00    +0.382 N 
ATOM     20  C25 CHE B   09      1.000  -5.480   3.000  0.00  0.00    -0.079 C 
ATOM     21  H7  CHE B   09      1.000  -6.670   8.000  0.00  0.00    -0.082 HD
ENDBRANCH  15  19
ENDBRANCH  14  15
ENDBRANCH  13  14
ENDBRANCH   7  13
ENDBRANCH   1  10
BRANCH   3  22
ATOM     22  C13 CHE B   09      1.000   4.990   5.000  0.00  0.00    +0.029 A 
ATOM     23  C14 CHE B   09      1.000   5.030   1.000  0.00  0.00    +0.114 A 
ATOM     24  N2  CHE B   09      1.000   5.920   5.000  0.00  0.00    -0.284 N 
ATOM     25  N3  CHE B   09      1.000   6.450   9.000  0.00  0.00    -0.172 NA
ATOM     26  C15 CHE B   09      1.000   5.910   3.000  0.00  0.00    +0.118 A 
ATOM     27  H16 CHE B   09      1.000   6.200   3.000  0.00  0.00    +0.188 HD
BRANCH  26  28
ATOM     28  C16 CHE B   09      1.000   6.290   2.000  0.00  0.00    +0.091 A 
ATOM     29  C17 CHE B   09      1.000   5.410   2.000  0.00  0.00    +0.030 A 
ATOM     30  C18 CHE B   09      1.000   5.890   8.000  0.00  0.00    +0.004 A 
ATOM     31  C19 CHE B   09      1.000   7.230   7.000  0.00  0.00    +0.020 A 
ATOM     32  C20 CHE B   09      1.000   8.070   8.000  0.00  0.00    +0.111 A 
ATOM     33  N4  CHE B   09      1.000   7.590   6.000  0.00  0.00    -0.253 NA
ENDBRANCH  26  28
ENDBRANCH   3  22
TORSDOF 7
