REMARK  Name = dock_mp/CHEMBL2/CHEMBL260239.pdb
REMARK  8 active torsions:
REMARK  status: ('A' for Active; 'I' for Inactive)
REMARK    1  A    between atoms: C1_1  and  N1_2
REMARK    2  A    between atoms: N1_2  and  C2_3
REMARK    3  A    between atoms: N1_2  and  C3_4
REMARK    4  A    between atoms: C3_4  and  C4_5
REMARK    5  A    between atoms: C7_8  and  O1_9
REMARK    6  A    between atoms: O1_9  and  C8_10
REMARK    7  A    between atoms: C12_14  and  C13_15
REMARK    8  A    between atoms: C18_22  and  C19_23
REMARK                            x       y       z     vdW  Elec       q    Type
REMARK                         _______ _______ _______ _____ _____    ______ ____
ROOT
ATOM      1  C8  CHE B   02      1.000   0.600   1.000  0.00  0.00    +0.130 A 
ATOM      2  C9  CHE B   02      1.000  -0.500   7.000  0.00  0.00    +0.047 A 
ATOM      3  C10 CHE B   02      1.000  -1.770   5.000  0.00  0.00    +0.014 A 
ATOM      4  C11 CHE B   02      1.000  -2.040   1.000  0.00  0.00    +0.008 A 
ATOM      5  C12 CHE B   02      1.000  -3.270   0.000  0.00  0.00    -0.003 A 
ATOM      6  C24 CHE B   02      1.000  -3.490   4.000  0.00  0.00    +0.029 A 
ATOM      7  C25 CHE B   02      1.000  -2.390   4.000  0.00  0.00    +0.112 A 
ATOM      8  N5  CHE B   02      1.000  -1.190   1.000  0.00  0.00    -0.255 NA
ATOM      9  C26 CHE B   02      1.000  -0.970   2.000  0.00  0.00    +0.075 A 
ATOM     10  C27 CHE B   02      1.000   0.310   3.000  0.00  0.00    +0.074 A 
ENDROOT
BRANCH   5  11
ATOM     11  C13 CHE B   02      1.000  -4.400   5.000  0.00  0.00    +0.033 A 
ATOM     12  C14 CHE B   02      1.000  -4.900   3.000  0.00  0.00    +0.048 A 
ATOM     13  C15 CHE B   02      1.000  -4.680   0.000  0.00  0.00    +0.057 C 
ATOM     14  C16 CHE B   02      1.000  -5.470   9.000  0.00  0.00    +0.029 C 
ATOM     15  C17 CHE B   02      1.000  -6.520   4.000  0.00  0.00    +0.144 C 
ATOM     16  N2  CHE B   02      1.000  -5.950   4.000  0.00  0.00    -0.267 N 
ATOM     17  N3  CHE B   02      1.000  -6.150   5.000  0.00  0.00    -0.169 NA
ATOM     18  C18 CHE B   02      1.000  -5.220   4.000  0.00  0.00    +0.119 A 
BRANCH  18  19
ATOM     19  C19 CHE B   02      1.000  -5.120   9.000  0.00  0.00    +0.091 A 
ATOM     20  C20 CHE B   02      1.000  -6.230   4.000  0.00  0.00    +0.030 A 
ATOM     21  C21 CHE B   02      1.000  -6.190   7.000  0.00  0.00    +0.004 A 
ATOM     22  C22 CHE B   02      1.000  -5.030   3.000  0.00  0.00    +0.020 A 
ATOM     23  C23 CHE B   02      1.000  -3.940   3.000  0.00  0.00    +0.111 A 
ATOM     24  N4  CHE B   02      1.000  -4.000   2.000  0.00  0.00    -0.253 NA
ENDBRANCH  18  19
ENDBRANCH   5  11
BRANCH   1  25
ATOM     25  O1  CHE B   02      1.000   1.780   8.000  0.00  0.00    -0.456 OA
BRANCH  25  29
ATOM     26  C4  CHE B   02      1.000   5.820   4.000  0.00  0.00    -0.064 A 
ATOM     27  C5  CHE B   02      1.000   4.880   1.000  0.00  0.00    +0.005 A 
ATOM     28  C6  CHE B   02      1.000   3.530   5.000  0.00  0.00    +0.046 A 
ATOM     29  C7  CHE B   02      1.000   3.040   6.000  0.00  0.00    +0.128 A 
ATOM     30  C28 CHE B   02      1.000   4.030   3.000  0.00  0.00    +0.046 A 
ATOM     31  C29 CHE B   02      1.000   5.360   2.000  0.00  0.00    +0.005 A 
BRANCH  26  32
ATOM     32  C3  CHE B   02      1.000   7.240   3.000  0.00  0.00    -0.044 C 
BRANCH  32  34
ATOM     33  C1  CHE B   02      1.000   7.720   4.000  0.00  0.00    -0.096 C 
ATOM     34  N1  CHE B   02      1.000   7.940   7.000  0.00  0.00    +0.379 N 
ATOM     35  C2  CHE B   02      1.000   9.360   0.000  0.00  0.00    -0.096 C 
ATOM     36  H4  CHE B   02      1.000   7.620   2.000  0.00  0.00    -0.082 HD
ENDBRANCH  32  34
ENDBRANCH  26  32
ENDBRANCH  25  29
ENDBRANCH   1  25
TORSDOF 6
