REMARK  Name = dock_mp/CHEMBL2/CHEMBL208437.pdb
REMARK  7 active torsions:
REMARK  status: ('A' for Active; 'I' for Inactive)
REMARK    1  A    between atoms: C1_1  and  C2_2
REMARK    2  A    between atoms: C1_1  and  O1_8
REMARK    3  A    between atoms: C2_2  and  N1_3
REMARK    4  A    between atoms: O1_8  and  C6_9
REMARK    5  A    between atoms: C9_12  and  C10_13
REMARK    6  A    between atoms: C12_15  and  C13_16
REMARK    7  A    between atoms: C15_20  and  C16_21
REMARK                            x       y       z     vdW  Elec       q    Type
REMARK                         _______ _______ _______ _____ _____    ______ ____
ROOT
ATOM      1  C10 CHE B   04      1.000  -1.030   0.000  0.00  0.00    +0.072 A 
ATOM      2  C11 CHE B   04      1.000  -2.220   4.000  0.00  0.00    +0.037 A 
ATOM      3  C12 CHE B   04      1.000  -3.300   4.000  0.00  0.00    -0.011 A 
ATOM      4  C21 CHE B   04      1.000  -3.110   0.000  0.00  0.00    +0.028 A 
ATOM      5  C22 CHE B   04      1.000  -1.900   0.000  0.00  0.00    +0.112 A 
ATOM      6  N6  CHE B   04      1.000  -0.860   5.000  0.00  0.00    -0.255 NA
ENDROOT
BRANCH   1  10
ATOM      7  C6  CHE B   04      1.000   2.320   8.000  0.00  0.00    +0.121 A 
ATOM      8  C7  CHE B   04      1.000   2.380   9.000  0.00  0.00    +0.046 A 
ATOM      9  C8  CHE B   04      1.000   1.270   4.000  0.00  0.00    +0.013 A 
ATOM     10  C9  CHE B   04      1.000   0.110   2.000  0.00  0.00    +0.001 A 
ATOM     11  C23 CHE B   04      1.000   0.120   3.000  0.00  0.00    +0.013 A 
ATOM     12  C24 CHE B   04      1.000   1.190   9.000  0.00  0.00    +0.046 A 
BRANCH   7  13
ATOM     13  O1  CHE B   04      1.000   3.400   4.000  0.00  0.00    -0.490 OA
BRANCH  13  14
ATOM     14  C1  CHE B   04      1.000   4.660   0.000  0.00  0.00    +0.250 C 
BRANCH  14  15
ATOM     15  C2  CHE B   04      1.000   5.500   5.000  0.00  0.00    +0.163 C 
BRANCH  15  16
ATOM     16  N1  CHE B   04      1.000   6.780   2.000  0.00  0.00    -0.334 N 
ATOM     17  C3  CHE B   04      1.000   6.900   5.000  0.00  0.00    +0.107 A 
ATOM     18  C4  CHE B   04      1.000   8.200   3.000  0.00  0.00    +0.130 A 
ATOM     19  N2  CHE B   04      1.000   8.830   6.000  0.00  0.00    -0.244 NA
ATOM     20  C5  CHE B   04      1.000   7.920   5.000  0.00  0.00    +0.199 A 
ENDBRANCH  15  16
ENDBRANCH  14  15
ENDBRANCH  13  14
ENDBRANCH   7  13
ENDBRANCH   1  10
BRANCH   3  21
ATOM     21  C13 CHE B   04      1.000  -4.570   6.000  0.00  0.00    +0.029 A 
ATOM     22  C14 CHE B   04      1.000  -5.250   1.000  0.00  0.00    +0.114 A 
ATOM     23  N3  CHE B   04      1.000  -6.420   5.000  0.00  0.00    -0.284 N 
ATOM     24  N4  CHE B   04      1.000  -6.460   4.000  0.00  0.00    -0.172 NA
ATOM     25  C15 CHE B   04      1.000  -5.390   4.000  0.00  0.00    +0.118 A 
ATOM     26  H12 CHE B   04      1.000  -7.160   0.000  0.00  0.00    +0.188 HD
BRANCH  25  27
ATOM     27  C16 CHE B   04      1.000  -5.070   8.000  0.00  0.00    +0.091 A 
ATOM     28  C17 CHE B   04      1.000  -5.100   5.000  0.00  0.00    +0.030 A 
ATOM     29  C18 CHE B   04      1.000  -4.790   9.000  0.00  0.00    +0.004 A 
ATOM     30  C19 CHE B   04      1.000  -4.470   7.000  0.00  0.00    +0.020 A 
ATOM     31  C20 CHE B   04      1.000  -4.460   4.000  0.00  0.00    +0.111 A 
ATOM     32  N5  CHE B   04      1.000  -4.770   0.000  0.00  0.00    -0.253 NA
ENDBRANCH  25  27
ENDBRANCH   3  21
TORSDOF 7
