REMARK  Name = dock_mp/CHEMBL2/CHEMBL267228.pdb
REMARK  5 active torsions:
REMARK  status: ('A' for Active; 'I' for Inactive)
REMARK    1  A    between atoms: O1_1  and  C1_2
REMARK    2  A    between atoms: C1_2  and  C2_3
REMARK    3  A    between atoms: C5_6  and  C6_7
REMARK    4  A    between atoms: C7_9  and  C8_10
REMARK    5  A    between atoms: C15_19  and  C16_20
REMARK                            x       y       z     vdW  Elec       q    Type
REMARK                         _______ _______ _______ _____ _____    ______ ____
ROOT
ATOM      1  C6  CHE B   02      1.000   1.500   9.000  0.00  0.00    +0.139 A 
ATOM      2  N1  CHE B   02      1.000   0.470   7.000  0.00  0.00    -0.227 NA
ATOM      3  C7  CHE B   02      1.000  -0.680   6.000  0.00  0.00    +0.099 A 
ATOM      4  C15 CHE B   02      1.000  -0.330   9.000  0.00  0.00    +0.093 A 
ATOM      5  N3  CHE B   02      1.000   1.000   3.000  0.00  0.00    -0.336 N 
ATOM      6  H15 CHE B   02      1.000   1.560   5.000  0.00  0.00    +0.167 HD
ENDROOT
BRANCH   3   7
ATOM      7  C8  CHE B   02      1.000  -1.990   9.000  0.00  0.00    +0.006 A 
ATOM      8  C9  CHE B   02      1.000  -2.690   7.000  0.00  0.00    +0.014 A 
ATOM      9  C10 CHE B   02      1.000  -3.940   7.000  0.00  0.00    +0.050 A 
ATOM     10  C11 CHE B   02      1.000  -4.490   6.000  0.00  0.00    +0.166 A 
ATOM     11  O2  CHE B   02      1.000  -5.720   0.000  0.00  0.00    -0.453 OA
ATOM     12  C12 CHE B   02      1.000  -5.710   2.000  0.00  0.00    +0.466 C 
ATOM     13  O3  CHE B   02      1.000  -4.610   8.000  0.00  0.00    -0.453 OA
ATOM     14  C13 CHE B   02      1.000  -3.800   8.000  0.00  0.00    +0.167 A 
ATOM     15  C14 CHE B   02      1.000  -2.530   8.000  0.00  0.00    +0.059 A 
ENDBRANCH   3   7
BRANCH   1  19
ATOM     16  C2  CHE B   02      1.000   5.600   5.000  0.00  0.00    -0.022 A 
ATOM     17  C3  CHE B   02      1.000   4.610   4.000  0.00  0.00    +0.006 A 
ATOM     18  C4  CHE B   02      1.000   3.270   5.000  0.00  0.00    +0.012 A 
ATOM     19  C5  CHE B   02      1.000   2.890   8.000  0.00  0.00    +0.017 A 
ATOM     20  C21 CHE B   02      1.000   3.900   4.000  0.00  0.00    +0.012 A 
ATOM     21  C22 CHE B   02      1.000   5.220   5.000  0.00  0.00    +0.006 A 
BRANCH  16  22
ATOM     22  C1  CHE B   02      1.000   7.040   6.000  0.00  0.00    +0.191 C 
BRANCH  22  23
ATOM     23  O1  CHE B   02      1.000   7.580   5.000  0.00  0.00    -0.390 OA
ATOM     24  H1  CHE B   02      1.000   7.030   3.000  0.00  0.00    +0.210 HD
ENDBRANCH  22  23
ENDBRANCH  16  22
ENDBRANCH   1  19
BRANCH   4  25
ATOM     25  C16 CHE B   02      1.000  -1.310   8.000  0.00  0.00    +0.089 A 
ATOM     26  C17 CHE B   02      1.000  -2.240   8.000  0.00  0.00    +0.030 A 
ATOM     27  C18 CHE B   02      1.000  -3.190   6.000  0.00  0.00    +0.004 A 
ATOM     28  C19 CHE B   02      1.000  -3.170   3.000  0.00  0.00    +0.020 A 
ATOM     29  C20 CHE B   02      1.000  -2.250   1.000  0.00  0.00    +0.111 A 
ATOM     30  N2  CHE B   02      1.000  -1.330   7.000  0.00  0.00    -0.253 NA
ENDBRANCH   4  25
TORSDOF 5
