REMARK  Name = dock_mp/CHEMBL2/CHEMBL226734.pdb
REMARK  6 active torsions:
REMARK  status: ('A' for Active; 'I' for Inactive)
REMARK    1  A    between atoms: C1_1  and  C2_2
REMARK    2  A    between atoms: C6_6  and  C7_7
REMARK    3  A    between atoms: N2_10  and  C9_11
REMARK    4  A    between atoms: C9_11  and  C10_12
REMARK    5  A    between atoms: C14_16  and  C15_17
REMARK    6  A    between atoms: C17_21  and  C18_22
REMARK                            x       y       z     vdW  Elec       q    Type
REMARK                         _______ _______ _______ _____ _____    ______ ____
ROOT
ATOM      1  C7  CHE B   07      1.000  -0.770   3.000  0.00  0.00    +0.094 A 
ATOM      2  N1  CHE B   07      1.000   0.510   9.000  0.00  0.00    -0.324 N 
ATOM      3  C8  CHE B   07      1.000   1.290   0.000  0.00  0.00    +0.194 A 
ATOM      4  N2  CHE B   07      1.000   2.710   1.000  0.00  0.00    -0.311 N 
ATOM      5  N4  CHE B   07      1.000   0.450   2.000  0.00  0.00    -0.214 NA
ATOM      6  C17 CHE B   07      1.000  -0.840   8.000  0.00  0.00    +0.100 A 
ATOM      7  H7  CHE B   07      1.000   0.900   6.000  0.00  0.00    +0.169 HD
ATOM      8  H8  CHE B   07      1.000   3.240   8.000  0.00  0.00    +0.149 HD
ENDROOT
BRANCH   6   9
ATOM      9  C18 CHE B   07      1.000  -1.960   5.000  0.00  0.00    +0.006 A 
ATOM     10  C19 CHE B   07      1.000  -2.130   7.000  0.00  0.00    +0.014 A 
ATOM     11  C20 CHE B   07      1.000  -3.180   3.000  0.00  0.00    +0.050 A 
ATOM     12  C21 CHE B   07      1.000  -4.080   8.000  0.00  0.00    +0.166 A 
ATOM     13  O1  CHE B   07      1.000  -5.210   6.000  0.00  0.00    -0.453 OA
ATOM     14  C22 CHE B   07      1.000  -5.860   6.000  0.00  0.00    +0.466 C 
ATOM     15  O2  CHE B   07      1.000  -4.930   4.000  0.00  0.00    -0.453 OA
ATOM     16  C23 CHE B   07      1.000  -3.920   1.000  0.00  0.00    +0.167 A 
ATOM     17  C24 CHE B   07      1.000  -2.870   3.000  0.00  0.00    +0.059 A 
ENDBRANCH   6   9
BRANCH   1  23
ATOM     18  C1  CHE B   07      1.000  -3.340   7.000  0.00  0.00    +0.065 C 
ATOM     19  C2  CHE B   07      1.000  -3.130   2.000  0.00  0.00    +0.039 A 
ATOM     20  C3  CHE B   07      1.000  -3.990   9.000  0.00  0.00    +0.023 A 
ATOM     21  C4  CHE B   07      1.000  -3.790   9.000  0.00  0.00    +0.004 A 
ATOM     22  C5  CHE B   07      1.000  -2.740   8.000  0.00  0.00    +0.030 A 
ATOM     23  C6  CHE B   07      1.000  -1.880   8.000  0.00  0.00    +0.090 A 
ATOM     24  N5  CHE B   07      1.000  -2.120   2.000  0.00  0.00    -0.250 NA
ENDBRANCH   1  23
BRANCH   4  25
ATOM     25  C9  CHE B   07      1.000   3.450   1.000  0.00  0.00    +0.139 C 
BRANCH  25  26
ATOM     26  C10 CHE B   07      1.000   4.900   9.000  0.00  0.00    -0.029 A 
ATOM     27  C11 CHE B   07      1.000   5.550   1.000  0.00  0.00    +0.005 A 
ATOM     28  C12 CHE B   07      1.000   6.880   8.000  0.00  0.00    +0.002 A 
ATOM     29  C13 CHE B   07      1.000   7.630   8.000  0.00  0.00    +0.019 A 
ATOM     30  C14 CHE B   07      1.000   6.990   9.000  0.00  0.00    +0.052 A 
ATOM     31  C16 CHE B   07      1.000   5.630   5.000  0.00  0.00    +0.024 A 
BRANCH  30  32
ATOM     32  C15 CHE B   07      1.000   7.790   6.000  0.00  0.00    +0.099 C 
ATOM     33  N3  CHE B   07      1.000   8.460   4.000  0.00  0.00    -0.191 NA
ENDBRANCH  30  32
ENDBRANCH  25  26
ENDBRANCH   4  25
TORSDOF 5
