REMARK  Name = dock_mp/CHEMBL2/CHEMBL268889.pdb
REMARK  2 active torsions:
REMARK  status: ('A' for Active; 'I' for Inactive)
REMARK    1  A    between atoms: C4_5  and  C5_6
REMARK    2  A    between atoms: C10_12  and  C11_13
REMARK                            x       y       z     vdW  Elec       q    Type
REMARK                         _______ _______ _______ _____ _____    ______ ____
ROOT
ATOM      1  C1  CHE B   08      1.000   0.160   1.000  0.00  0.00    +0.029 C 
ATOM      2  C2  CHE B   08      1.000  -1.250   8.000  0.00  0.00    +0.076 C 
ATOM      3  C3  CHE B   08      1.000  -1.320   6.000  0.00  0.00    +0.111 A 
ATOM      4  N1  CHE B   08      1.000  -2.260   9.000  0.00  0.00    -0.230 NA
ATOM      5  C4  CHE B   08      1.000  -1.580   5.000  0.00  0.00    +0.115 A 
ATOM      6  C10 CHE B   08      1.000  -0.230   2.000  0.00  0.00    +0.078 A 
ATOM      7  N3  CHE B   08      1.000  -0.100   3.000  0.00  0.00    -0.327 N 
ATOM      8  C18 CHE B   08      1.000   0.920   2.000  0.00  0.00    +0.124 C 
ENDROOT
BRANCH   6   9
ATOM      9  C11 CHE B   08      1.000   0.840   5.000  0.00  0.00    +0.004 A 
ATOM     10  C12 CHE B   08      1.000   1.610   3.000  0.00  0.00    +0.014 A 
ATOM     11  C13 CHE B   08      1.000   2.650   0.000  0.00  0.00    +0.050 A 
ATOM     12  C14 CHE B   08      1.000   2.910   0.000  0.00  0.00    +0.166 A 
ATOM     13  O1  CHE B   08      1.000   3.870   9.000  0.00  0.00    -0.453 OA
ATOM     14  C15 CHE B   08      1.000   4.030   1.000  0.00  0.00    +0.466 C 
ATOM     15  O2  CHE B   08      1.000   2.670   4.000  0.00  0.00    -0.453 OA
ATOM     16  C16 CHE B   08      1.000   2.130   1.000  0.00  0.00    +0.167 A 
ATOM     17  C17 CHE B   08      1.000   1.090   5.000  0.00  0.00    +0.059 A 
ENDBRANCH   6   9
BRANCH   5  18
ATOM     18  C5  CHE B   08      1.000  -2.240   2.000  0.00  0.00    +0.091 A 
ATOM     19  C6  CHE B   08      1.000  -2.960   9.000  0.00  0.00    +0.030 A 
ATOM     20  C7  CHE B   08      1.000  -3.580   2.000  0.00  0.00    +0.004 A 
ATOM     21  C8  CHE B   08      1.000  -3.430   9.000  0.00  0.00    +0.020 A 
ATOM     22  C9  CHE B   08      1.000  -2.700   8.000  0.00  0.00    +0.111 A 
ATOM     23  N2  CHE B   08      1.000  -2.120   7.000  0.00  0.00    -0.253 NA
ENDBRANCH   5  18
TORSDOF 2
