REMARK  Name = dock_mp/CHEMBL2/CHEMBL204966.pdb
REMARK  4 active torsions:
REMARK  status: ('A' for Active; 'I' for Inactive)
REMARK    1  A    between atoms: C1_1  and  C2_2
REMARK    2  A    between atoms: C6_6  and  C7_7
REMARK    3  A    between atoms: C12_14  and  C13_15
REMARK    4  A    between atoms: N4_21  and  C18_22
REMARK                            x       y       z     vdW  Elec       q    Type
REMARK                         _______ _______ _______ _____ _____    ______ ____
ROOT
ATOM      1  C7  CHE B   09      1.000   1.360   9.000  0.00  0.00    +0.119 A 
ATOM      2  N1  CHE B   09      1.000   2.200   1.000  0.00  0.00    -0.169 NA
ATOM      3  N2  CHE B   09      1.000   1.540   0.000  0.00  0.00    -0.267 N 
ATOM      4  C8  CHE B   09      1.000   1.800   5.000  0.00  0.00    +0.144 C 
ATOM      5  C9  CHE B   09      1.000   0.440   8.000  0.00  0.00    +0.029 C 
ATOM      6  C10 CHE B   09      1.000  -0.550   9.000  0.00  0.00    +0.057 C 
ATOM      7  C11 CHE B   09      1.000   0.230   4.000  0.00  0.00    +0.048 A 
ATOM      8  C12 CHE B   09      1.000   0.100   9.000  0.00  0.00    +0.032 A 
ENDROOT
BRANCH   8   9
ATOM      9  C13 CHE B   09      1.000  -1.080   6.000  0.00  0.00    -0.012 A 
ATOM     10  C14 CHE B   09      1.000  -2.080   0.000  0.00  0.00    +0.011 A 
ATOM     11  C15 CHE B   09      1.000  -3.230   8.000  0.00  0.00    +0.030 A 
ATOM     12  C16 CHE B   09      1.000  -3.340   7.000  0.00  0.00    +0.089 A 
ATOM     13  N3  CHE B   09      1.000  -4.320   7.000  0.00  0.00    -0.236 NA
ATOM     14  C17 CHE B   09      1.000  -3.950   3.000  0.00  0.00    +0.200 A 
ATOM     15  N4  CHE B   09      1.000  -2.720   8.000  0.00  0.00    -0.333 N 
ATOM     16  C18 CHE B   09      1.000  -1.930   9.000  0.00  0.00    +0.150 C 
ATOM     17  C19 CHE B   09      1.000  -2.350   7.000  0.00  0.00    +0.069 A 
ATOM     18  C20 CHE B   09      1.000  -1.180   5.000  0.00  0.00    +0.036 A 
ENDBRANCH   8   9
BRANCH   1  24
ATOM     19  C1  CHE B   09      1.000   3.720   9.000  0.00  0.00    +0.065 C 
ATOM     20  C2  CHE B   09      1.000   2.840   2.000  0.00  0.00    +0.039 A 
ATOM     21  C3  CHE B   09      1.000   2.380   1.000  0.00  0.00    +0.023 A 
ATOM     22  C4  CHE B   09      1.000   1.570   1.000  0.00  0.00    +0.004 A 
ATOM     23  C5  CHE B   09      1.000   1.190   5.000  0.00  0.00    +0.030 A 
ATOM     24  C6  CHE B   09      1.000   1.680   0.000  0.00  0.00    +0.092 A 
ATOM     25  N5  CHE B   09      1.000   2.480   5.000  0.00  0.00    -0.250 NA
ENDBRANCH   1  24
TORSDOF 2
