REMARK  Name = dock_mp/CHEMBL2/CHEMBL260015.pdb
REMARK  6 active torsions:
REMARK  status: ('A' for Active; 'I' for Inactive)
REMARK    1  A    between atoms: C4_4  and  C5_5
REMARK    2  A    between atoms: C10_11  and  O1_12
REMARK    3  A    between atoms: O1_12  and  C11_13
REMARK    4  A    between atoms: C11_13  and  C12_14
REMARK    5  A    between atoms: C12_14  and  N2_15
REMARK    6  A    between atoms: C20_24  and  C21_25
REMARK                            x       y       z     vdW  Elec       q    Type
REMARK                         _______ _______ _______ _____ _____    ______ ____
ROOT
ATOM      1  C5  CHE B   00      1.000  -2.590   9.000  0.00  0.00    -0.003 A 
ATOM      2  C6  CHE B   00      1.000  -2.670   2.000  0.00  0.00    +0.029 A 
ATOM      3  C7  CHE B   00      1.000  -1.510   4.000  0.00  0.00    +0.112 A 
ATOM      4  N1  CHE B   00      1.000  -0.300   8.000  0.00  0.00    -0.255 NA
ATOM      5  C8  CHE B   00      1.000  -0.210   1.000  0.00  0.00    +0.075 A 
ATOM      6  C9  CHE B   00      1.000   1.020   6.000  0.00  0.00    +0.074 A 
ATOM      7  C10 CHE B   00      1.000   1.200   7.000  0.00  0.00    +0.122 A 
ATOM      8  C17 CHE B   00      1.000   0.030   8.000  0.00  0.00    +0.046 A 
ATOM      9  C18 CHE B   00      1.000  -1.200   2.000  0.00  0.00    +0.014 A 
ATOM     10  C19 CHE B   00      1.000  -1.340   1.000  0.00  0.00    +0.008 A 
ENDROOT
BRANCH   1  14
ATOM     11  C1  CHE B   00      1.000  -4.990   0.000  0.00  0.00    +0.029 C 
ATOM     12  C2  CHE B   00      1.000  -3.980   7.000  0.00  0.00    +0.057 C 
ATOM     13  C3  CHE B   00      1.000  -4.250   0.000  0.00  0.00    +0.048 A 
ATOM     14  C4  CHE B   00      1.000  -3.750   2.000  0.00  0.00    +0.033 A 
ATOM     15  C20 CHE B   00      1.000  -4.550   4.000  0.00  0.00    +0.119 A 
ATOM     16  N4  CHE B   00      1.000  -5.480   6.000  0.00  0.00    -0.169 NA
ATOM     17  N5  CHE B   00      1.000  -5.310   2.000  0.00  0.00    -0.267 N 
ATOM     18  C26 CHE B   00      1.000  -5.890   5.000  0.00  0.00    +0.144 C 
BRANCH  15  19
ATOM     19  C21 CHE B   00      1.000  -4.490   5.000  0.00  0.00    +0.091 A 
ATOM     20  C22 CHE B   00      1.000  -4.790   4.000  0.00  0.00    +0.030 A 
ATOM     21  C23 CHE B   00      1.000  -4.720   0.000  0.00  0.00    +0.004 A 
ATOM     22  C24 CHE B   00      1.000  -4.330   2.000  0.00  0.00    +0.020 A 
ATOM     23  C25 CHE B   00      1.000  -4.030   0.000  0.00  0.00    +0.111 A 
ATOM     24  N3  CHE B   00      1.000  -4.110   9.000  0.00  0.00    -0.253 NA
ENDBRANCH  15  19
ENDBRANCH   1  14
BRANCH   7  25
ATOM     25  O1  CHE B   00      1.000   2.360   5.000  0.00  0.00    -0.494 OA
BRANCH  25  26
ATOM     26  C11 CHE B   00      1.000   3.660   3.000  0.00  0.00    +0.210 C 
BRANCH  26  27
ATOM     27  C12 CHE B   00      1.000   4.210   6.000  0.00  0.00    -0.037 C 
BRANCH  27  28
ATOM     28  N2  CHE B   00      1.000   5.590   5.000  0.00  0.00    +0.385 N 
ATOM     29  C13 CHE B   00      1.000   6.460   5.000  0.00  0.00    -0.050 C 
ATOM     30  C14 CHE B   00      1.000   7.000   3.000  0.00  0.00    +0.141 C 
ATOM     31  O2  CHE B   00      1.000   7.840   9.000  0.00  0.00    -0.383 OA
ATOM     32  C15 CHE B   00      1.000   7.370   7.000  0.00  0.00    +0.141 C 
ATOM     33  C16 CHE B   00      1.000   5.890   9.000  0.00  0.00    -0.050 C 
ATOM     34  H12 CHE B   00      1.000   5.600   4.000  0.00  0.00    -0.081 HD
ENDBRANCH  27  28
ENDBRANCH  26  27
ENDBRANCH  25  26
ENDBRANCH   7  25
TORSDOF 6
