REMARK  Name = dock_mp/CHEMBL2/CHEMBL238125.pdb
REMARK  3 active torsions:
REMARK  status: ('A' for Active; 'I' for Inactive)
REMARK    1  A    between atoms: C6_8  and  C7_9
REMARK    2  A    between atoms: C8_11  and  N2_12
REMARK    3  A    between atoms: N2_12  and  C9_13
REMARK                            x       y       z     vdW  Elec       q    Type
REMARK                         _______ _______ _______ _____ _____    ______ ____
ROOT
ATOM      1  C7  CHE B   01      1.000  -1.570   9.000  0.00  0.00    +0.167 A 
ATOM      2  N1  CHE B   01      1.000  -0.420   8.000  0.00  0.00    -0.210 NA
ATOM      3  C8  CHE B   01      1.000   0.740   7.000  0.00  0.00    +0.155 A 
ATOM      4  C14 CHE B   01      1.000   0.690   8.000  0.00  0.00    +0.148 A 
ATOM      5  N4  CHE B   01      1.000   1.820   3.000  0.00  0.00    -0.247 NA
ATOM      6  C15 CHE B   01      1.000   1.770   3.000  0.00  0.00    +0.131 A 
ATOM      7  C16 CHE B   01      1.000   0.560   7.000  0.00  0.00    +0.133 A 
ATOM      8  N5  CHE B   01      1.000  -0.570   1.000  0.00  0.00    -0.233 NA
ATOM      9  C17 CHE B   01      1.000  -0.480   1.000  0.00  0.00    +0.184 A 
ATOM     10  N6  CHE B   01      1.000  -1.610   3.000  0.00  0.00    -0.206 NA
ENDROOT
BRANCH   1  18
ATOM     11  F1  CHE B   01      1.000  -4.060   0.000  0.00  0.00    -0.205 F 
ATOM     12  C1  CHE B   01      1.000  -3.990   8.000  0.00  0.00    +0.134 A 
ATOM     13  C2  CHE B   01      1.000  -5.170   4.000  0.00  0.00    +0.040 A 
ATOM     14  C3  CHE B   01      1.000  -5.150   4.000  0.00  0.00    +0.023 A 
ATOM     15  C4  CHE B   01      1.000  -3.960   8.000  0.00  0.00    +0.042 A 
ATOM     16 CL1  CHE B   01      1.000  -3.970   6.000  0.00  0.00    -0.084 Cl
ATOM     17  C5  CHE B   01      1.000  -2.780   0.000  0.00  0.00    +0.034 A 
ATOM     18  C6  CHE B   01      1.000  -2.820   2.000  0.00  0.00    +0.056 A 
ENDBRANCH   1  18
BRANCH   3  19
ATOM     19  N2  CHE B   01      1.000   1.960   2.000  0.00  0.00    -0.298 N 
ATOM     20  H4  CHE B   01      1.000   2.180   1.000  0.00  0.00    +0.154 HD
BRANCH  19  21
ATOM     21  C9  CHE B   01      1.000   2.840   4.000  0.00  0.00    +0.035 A 
ATOM     22  C10 CHE B   01      1.000   2.570   5.000  0.00  0.00    +0.043 A 
ATOM     23  C11 CHE B   01      1.000   3.510   1.000  0.00  0.00    +0.112 A 
ATOM     24  N3  CHE B   01      1.000   4.650   9.000  0.00  0.00    -0.263 NA
ATOM     25  C12 CHE B   01      1.000   4.950   0.000  0.00  0.00    +0.112 A 
ATOM     26  C13 CHE B   01      1.000   4.020   9.000  0.00  0.00    +0.043 A 
ENDBRANCH  19  21
ENDBRANCH   3  19
TORSDOF 3
