REMARK  Name = dock_mp/CHEMBL2/CHEMBL204170.pdb
REMARK  3 active torsions:
REMARK  status: ('A' for Active; 'I' for Inactive)
REMARK    1  A    between atoms: C1_1  and  N1_2
REMARK    2  A    between atoms: C6_8  and  C7_9
REMARK    3  A    between atoms: C12_16  and  C13_17
REMARK                            x       y       z     vdW  Elec       q    Type
REMARK                         _______ _______ _______ _____ _____    ______ ____
ROOT
ATOM      1  C7  CHE B   01      1.000  -0.940   2.000  0.00  0.00    +0.032 A 
ATOM      2  C8  CHE B   01      1.000  -1.370   5.000  0.00  0.00    +0.048 A 
ATOM      3  C9  CHE B   01      1.000  -0.970   8.000  0.00  0.00    +0.057 C 
ATOM      4  C10 CHE B   01      1.000  -2.320   0.000  0.00  0.00    +0.029 C 
ATOM      5  C11 CHE B   01      1.000  -3.160   5.000  0.00  0.00    +0.144 C 
ATOM      6  N3  CHE B   01      1.000  -2.590   6.000  0.00  0.00    -0.267 N 
ATOM      7  N4  CHE B   01      1.000  -2.910   3.000  0.00  0.00    -0.169 NA
ATOM      8  C12 CHE B   01      1.000  -1.930   2.000  0.00  0.00    +0.119 A 
ENDROOT
BRANCH   1  16
ATOM      9  C1  CHE B   01      1.000   4.430   4.000  0.00  0.00    +0.150 C 
ATOM     10  N1  CHE B   01      1.000   3.970   7.000  0.00  0.00    -0.333 N 
ATOM     11  C2  CHE B   01      1.000   4.800   0.000  0.00  0.00    +0.200 A 
ATOM     12  N2  CHE B   01      1.000   4.070   2.000  0.00  0.00    -0.236 NA
ATOM     13  C3  CHE B   01      1.000   2.780   2.000  0.00  0.00    +0.089 A 
ATOM     14  C4  CHE B   01      1.000   1.600   4.000  0.00  0.00    +0.030 A 
ATOM     15  C5  CHE B   01      1.000   0.380   4.000  0.00  0.00    +0.011 A 
ATOM     16  C6  CHE B   01      1.000   0.310   4.000  0.00  0.00    -0.012 A 
ATOM     17  C18 CHE B   01      1.000   1.480   2.000  0.00  0.00    +0.036 A 
ATOM     18  C19 CHE B   01      1.000   2.690   5.000  0.00  0.00    +0.069 A 
ENDBRANCH   1  16
BRANCH   8  19
ATOM     19  C13 CHE B   01      1.000  -1.840   7.000  0.00  0.00    +0.091 A 
ATOM     20  C14 CHE B   01      1.000  -2.790   7.000  0.00  0.00    +0.030 A 
ATOM     21  C15 CHE B   01      1.000  -2.720   2.000  0.00  0.00    +0.004 A 
ATOM     22  C16 CHE B   01      1.000  -1.720   9.000  0.00  0.00    +0.020 A 
ATOM     23  C17 CHE B   01      1.000  -0.780   6.000  0.00  0.00    +0.111 A 
ATOM     24  N5  CHE B   01      1.000  -0.870   3.000  0.00  0.00    -0.253 NA
ENDBRANCH   8  19
TORSDOF 2
