MODEL 1
REMARK VINA RESULT:     -11.3      0.000      0.000
REMARK  Name = dock_mp/CHEMBL2/CHEMBL205570.pdb
REMARK  5 active torsions:
REMARK  status: ('A' for Active; 'I' for Inactive)
REMARK    1  A    between atoms: N1_4  and  C4_5
REMARK    2  A    between atoms: C4_5  and  C5_6
REMARK    3  A    between atoms: C8_9  and  C9_10
REMARK    4  A    between atoms: C11_12  and  C12_13
REMARK    5  A    between atoms: C14_17  and  C15_18
REMARK                            x       y       z     vdW  Elec       q    Type
REMARK                         _______ _______ _______ _____ _____    ______ ____
ROOT
ATOM      1  C9  CHE B   05     22.272  70.346   9.001  0.00  0.00    +0.072 A 
ATOM      2  C10 CHE B   05     23.422  70.585   9.711  0.00  0.00    +0.037 A 
ATOM      3  C11 CHE B   05     23.170  69.767   3.636  0.00  0.00    -0.011 A 
ATOM      4  C20 CHE B   05     22.993  69.486   1.636  0.00  0.00    +0.028 A 
ATOM      5  C21 CHE B   05     24.095  70.647   9.527  0.00  0.00    +0.112 A 
ATOM      6  N5  CHE B   05     21.421  69.605   4.114  0.00  0.00    -0.255 NA
ENDROOT
BRANCH   1  10
ATOM      7  C5  CHE B   05     17.818  68.299   6.164  0.00  0.00    -0.064 A 
ATOM      8  C6  CHE B   05     20.138  68.491  10.675  0.00  0.00    +0.002 A 
ATOM      9  C7  CHE B   05     18.879  69.673   3.768  0.00  0.00    +0.010 A 
ATOM     10  C8  CHE B   05     20.234  69.760   6.486  0.00  0.00    +0.000 A 
ATOM     11  C22 CHE B   05     17.929  69.580   1.970  0.00  0.00    +0.010 A 
ATOM     12  C23 CHE B   05     18.203  68.580   6.050  0.00  0.00    +0.002 A 
BRANCH   7  13
ATOM     13  C4  CHE B   05     15.779  67.714   3.649  0.00  0.00    -0.043 C 
BRANCH  13  17
ATOM     14  C1  CHE B   05     15.134  65.199   6.199  0.00  0.00    -0.020 C 
ATOM     15  C2  CHE B   05     16.709  67.073  11.794  0.00  0.00    -0.020 C 
ATOM     16  C3  CHE B   05     16.680  67.779   9.638  0.00  0.00    -0.078 C 
ATOM     17  N1  CHE B   05     17.024  67.918  11.610  0.00  0.00    +0.382 N 
ATOM     18  C24 CHE B   05     14.992  65.602   4.109  0.00  0.00    -0.078 C 
ATOM     19  H7  CHE B   05     16.636  67.660   9.664  0.00  0.00    -0.081 HD
ENDBRANCH  13  17
ENDBRANCH   7  13
ENDBRANCH   1  10
BRANCH   3  20
ATOM     20  C12 CHE B   05     23.361  69.387   0.512  0.00  0.00    +0.029 A 
ATOM     21  C13 CHE B   05     23.936  69.628   3.451  0.00  0.00    +0.114 A 
ATOM     22  N2  CHE B   05     24.232  69.229   0.302  0.00  0.00    -0.284 N 
ATOM     23  N3  CHE B   05     26.246  69.437   4.946  0.00  0.00    -0.172 NA
ATOM     24  C14 CHE B   05     24.774  69.245   1.197  0.00  0.00    +0.118 A 
ATOM     25  H14 CHE B   05     24.573  69.282   1.245  0.00  0.00    +0.188 HD
BRANCH  24  26
ATOM     26  C15 CHE B   05     25.339  69.142   1.061  0.00  0.00    +0.091 A 
ATOM     27  C16 CHE B   05     27.295  71.462   2.182  0.00  0.00    +0.030 A 
ATOM     28  C17 CHE B   05     27.927  71.347   2.030  0.00  0.00    +0.004 A 
ATOM     29  C18 CHE B   05     28.673  75.670   4.506  0.00  0.00    +0.020 A 
ATOM     30  C19 CHE B   05     27.505  75.882   4.787  0.00  0.00    +0.111 A 
ATOM     31  N4  CHE B   05     24.794  69.242   1.192  0.00  0.00    -0.253 NA
ENDBRANCH  24  26
ENDBRANCH   3  20
TORSDOF 5
ENDMDL
MODEL 2
REMARK VINA RESULT:     -10.9      2.043      2.158
REMARK  Name = dock_mp/CHEMBL2/CHEMBL205570.pdb
REMARK  5 active torsions:
REMARK  status: ('A' for Active; 'I' for Inactive)
REMARK    1  A    between atoms: N1_4  and  C4_5
REMARK    2  A    between atoms: C4_5  and  C5_6
REMARK    3  A    between atoms: C8_9  and  C9_10
REMARK    4  A    between atoms: C11_12  and  C12_13
REMARK    5  A    between atoms: C14_17  and  C15_18
REMARK                            x       y       z     vdW  Elec       q    Type
REMARK                         _______ _______ _______ _____ _____    ______ ____
ROOT
ATOM      1  C9  CHE B   05     22.452  70.298   9.102  0.00  0.00    +0.072 A 
ATOM      2  C10 CHE B   05     23.623  70.497   9.789  0.00  0.00    +0.037 A 
ATOM      3  C11 CHE B   05     23.226  69.702   3.719  0.00  0.00    -0.011 A 
ATOM      4  C20 CHE B   05     23.001  69.432   1.723  0.00  0.00    +0.028 A 
ATOM      5  C21 CHE B   05     24.293  70.538   9.592  0.00  0.00    +0.112 A 
ATOM      6  N5  CHE B   05     21.482  69.597   4.230  0.00  0.00    -0.255 NA
ENDROOT
BRANCH   1  10
ATOM      7  C5  CHE B   05     17.943  68.303   6.314  0.00  0.00    -0.064 A 
ATOM      8  C6  CHE B   05     20.395  68.344  10.759  0.00  0.00    +0.002 A 
ATOM      9  C7  CHE B   05     18.912  69.790   3.948  0.00  0.00    +0.010 A 
ATOM     10  C8  CHE B   05     20.347  69.786   6.626  0.00  0.00    +0.000 A 
ATOM     11  C22 CHE B   05     17.910  69.757   2.176  0.00  0.00    +0.010 A 
ATOM     12  C23 CHE B   05     18.320  68.594   6.201  0.00  0.00    +0.002 A 
BRANCH   7  13
ATOM     13  C4  CHE B   05     15.838  67.791   3.839  0.00  0.00    -0.043 C 
BRANCH  13  17
ATOM     14  C1  CHE B   05     15.124  65.310   6.403  0.00  0.00    -0.020 C 
ATOM     15  C2  CHE B   05     16.891  67.112  11.965  0.00  0.00    -0.020 C 
ATOM     16  C3  CHE B   05     16.854  67.818   9.810  0.00  0.00    -0.078 C 
ATOM     17  N1  CHE B   05     17.241  67.941  11.774  0.00  0.00    +0.382 N 
ATOM     18  C24 CHE B   05     14.962  65.719   4.317  0.00  0.00    -0.078 C 
ATOM     19  H7  CHE B   05     16.805  67.700   9.837  0.00  0.00    -0.081 HD
ENDBRANCH  13  17
ENDBRANCH   7  13
ENDBRANCH   1  10
BRANCH   3  20
ATOM     20  C12 CHE B   05     23.343  69.324   0.591  0.00  0.00    +0.029 A 
ATOM     21  C13 CHE B   05     23.996  69.662   3.505  0.00  0.00    +0.114 A 
ATOM     22  N2  CHE B   05     24.219  69.278   0.347  0.00  0.00    -0.284 N 
ATOM     23  N3  CHE B   05     26.367  69.784   4.908  0.00  0.00    -0.172 NA
ATOM     24  C14 CHE B   05     24.789  69.372   1.220  0.00  0.00    +0.118 A 
ATOM     25  H14 CHE B   05     24.587  69.382   1.277  0.00  0.00    +0.188 HD
BRANCH  24  26
ATOM     26  C15 CHE B   05     25.357  69.341   1.062  0.00  0.00    +0.091 A 
ATOM     27  C16 CHE B   05     26.314  71.995  -0.521  0.00  0.00    +0.030 A 
ATOM     28  C17 CHE B   05     26.949  71.961  -0.698  0.00  0.00    +0.004 A 
ATOM     29  C18 CHE B   05     26.017  76.517  -2.634  0.00  0.00    +0.020 A 
ATOM     30  C19 CHE B   05     24.843  76.579  -2.308  0.00  0.00    +0.111 A 
ATOM     31  N4  CHE B   05     24.808  69.370   1.215  0.00  0.00    -0.253 NA
ENDBRANCH  24  26
ENDBRANCH   3  20
TORSDOF 5
ENDMDL
MODEL 3
REMARK VINA RESULT:      -9.3      4.777     10.269
REMARK  Name = dock_mp/CHEMBL2/CHEMBL205570.pdb
REMARK  5 active torsions:
REMARK  status: ('A' for Active; 'I' for Inactive)
REMARK    1  A    between atoms: N1_4  and  C4_5
REMARK    2  A    between atoms: C4_5  and  C5_6
REMARK    3  A    between atoms: C8_9  and  C9_10
REMARK    4  A    between atoms: C11_12  and  C12_13
REMARK    5  A    between atoms: C14_17  and  C15_18
REMARK                            x       y       z     vdW  Elec       q    Type
REMARK                         _______ _______ _______ _____ _____    ______ ____
ROOT
ATOM      1  C9  CHE B   05     24.896  70.069  10.547  0.00  0.00    +0.072 A 
ATOM      2  C10 CHE B   05     25.824  70.393   9.589  0.00  0.00    +0.037 A 
ATOM      3  C11 CHE B   05     20.185  68.279   8.419  0.00  0.00    -0.011 A 
ATOM      4  C20 CHE B   05     18.307  67.576   8.126  0.00  0.00    +0.028 A 
ATOM      5  C21 CHE B   05     25.817  70.376   8.889  0.00  0.00    +0.112 A 
ATOM      6  N5  CHE B   05     20.204  68.324  10.238  0.00  0.00    -0.255 NA
ENDROOT
BRANCH   1  10
ATOM      7  C5  CHE B   05     21.449  67.340  14.117  0.00  0.00    -0.064 A 
ATOM      8  C6  CHE B   05     26.291  68.160  12.829  0.00  0.00    +0.002 A 
ATOM      9  C7  CHE B   05     19.186  68.599  12.687  0.00  0.00    +0.010 A 
ATOM     10  C8  CHE B   05     22.097  69.061  11.951  0.00  0.00    +0.000 A 
ATOM     11  C22 CHE B   05     17.253  68.253  13.224  0.00  0.00    +0.010 A 
ATOM     12  C23 CHE B   05     21.386  67.647  13.741  0.00  0.00    +0.002 A 
BRANCH   7  13
ATOM     13  C4  CHE B   05     18.650  66.332  15.521  0.00  0.00    -0.043 C 
BRANCH  13  17
ATOM     14  C1  CHE B   05     21.565  65.177  17.369  0.00  0.00    -0.020 C 
ATOM     15  C2  CHE B   05     26.441  64.359  13.784  0.00  0.00    -0.020 C 
ATOM     16  C3  CHE B   05     24.269  65.006  13.689  0.00  0.00    -0.078 C 
ATOM     17  N1  CHE B   05     26.094  64.596  12.965  0.00  0.00    +0.382 N 
ATOM     18  C24 CHE B   05     19.517  65.739  17.567  0.00  0.00    -0.078 C 
ATOM     19  H7  CHE B   05     24.318  64.972  13.804  0.00  0.00    -0.081 HD
ENDBRANCH  13  17
ENDBRANCH   7  13
ENDBRANCH   1  10
BRANCH   3  20
ATOM     20  C12 CHE B   05     17.362  67.213   7.504  0.00  0.00    +0.029 A 
ATOM     21  C13 CHE B   05     20.085  68.475   7.650  0.00  0.00    +0.114 A 
ATOM     22  N2  CHE B   05     17.249  67.437   6.629  0.00  0.00    -0.284 N 
ATOM     23  N3  CHE B   05     21.649  69.812   5.812  0.00  0.00    -0.172 NA
ATOM     24  C14 CHE B   05     18.111  67.948   6.326  0.00  0.00    +0.118 A 
ATOM     25  H14 CHE B   05     18.137  67.896   6.527  0.00  0.00    +0.188 HD
BRANCH  24  26
ATOM     26  C15 CHE B   05     18.037  68.093   5.759  0.00  0.00    +0.091 A 
ATOM     27  C16 CHE B   05     15.377  66.748   4.501  0.00  0.00    +0.030 A 
ATOM     28  C17 CHE B   05     15.295  66.910   3.867  0.00  0.00    +0.004 A 
ATOM     29  C18 CHE B   05     11.190  64.023   4.296  0.00  0.00    +0.020 A 
ATOM     30  C19 CHE B   05     11.342  63.723   5.469  0.00  0.00    +0.111 A 
ATOM     31  N4  CHE B   05     18.108  67.953   6.306  0.00  0.00    -0.253 NA
ENDBRANCH  24  26
ENDBRANCH   3  20
TORSDOF 5
ENDMDL
MODEL 4
REMARK VINA RESULT:      -9.0      5.112     10.493
REMARK  Name = dock_mp/CHEMBL2/CHEMBL205570.pdb
REMARK  5 active torsions:
REMARK  status: ('A' for Active; 'I' for Inactive)
REMARK    1  A    between atoms: N1_4  and  C4_5
REMARK    2  A    between atoms: C4_5  and  C5_6
REMARK    3  A    between atoms: C8_9  and  C9_10
REMARK    4  A    between atoms: C11_12  and  C12_13
REMARK    5  A    between atoms: C14_17  and  C15_18
REMARK                            x       y       z     vdW  Elec       q    Type
REMARK                         _______ _______ _______ _____ _____    ______ ____
ROOT
ATOM      1  C9  CHE B   05     24.976  70.248  11.292  0.00  0.00    +0.072 A 
ATOM      2  C10 CHE B   05     25.852  70.781  10.380  0.00  0.00    +0.037 A 
ATOM      3  C11 CHE B   05     20.191  68.822   9.055  0.00  0.00    -0.011 A 
ATOM      4  C20 CHE B   05     18.310  68.152   8.708  0.00  0.00    +0.028 A 
ATOM      5  C21 CHE B   05     25.811  70.907   9.692  0.00  0.00    +0.112 A 
ATOM      6  N5  CHE B   05     20.297  68.496  10.842  0.00  0.00    -0.255 NA
ENDROOT
BRANCH   1  10
ATOM      7  C5  CHE B   05     21.744  66.997  14.618  0.00  0.00    -0.064 A 
ATOM      8  C6  CHE B   05     26.509  68.311  13.459  0.00  0.00    +0.002 A 
ATOM      9  C7  CHE B   05     19.394  68.156  13.244  0.00  0.00    +0.010 A 
ATOM     10  C8  CHE B   05     22.261  68.912  12.584  0.00  0.00    +0.000 A 
ATOM     11  C22 CHE B   05     17.493  67.611  13.728  0.00  0.00    +0.010 A 
ATOM     12  C23 CHE B   05     21.658  67.323  14.262  0.00  0.00    +0.002 A 
BRANCH   7  13
ATOM     13  C4  CHE B   05     19.029  65.661  15.910  0.00  0.00    -0.043 C 
BRANCH  13  17
ATOM     14  C1  CHE B   05     22.107  64.405  17.390  0.00  0.00    -0.020 C 
ATOM     15  C2  CHE B   05     26.562  68.582  17.436  0.00  0.00    -0.020 C 
ATOM     16  C3  CHE B   05     24.402  68.312  16.800  0.00  0.00    -0.078 C 
ATOM     17  N1  CHE B   05     26.134  69.294  17.042  0.00  0.00    +0.382 N 
ATOM     18  C24 CHE B   05     20.100  63.880  16.895  0.00  0.00    -0.078 C 
ATOM     19  H7  CHE B   05     24.463  68.212  16.855  0.00  0.00    -0.081 HD
ENDBRANCH  13  17
ENDBRANCH   7  13
ENDBRANCH   1  10
BRANCH   3  20
ATOM     20  C12 CHE B   05     17.342  67.902   8.068  0.00  0.00    +0.029 A 
ATOM     21  C13 CHE B   05     20.094  69.084   8.305  0.00  0.00    +0.114 A 
ATOM     22  N2  CHE B   05     17.231  68.199   7.215  0.00  0.00    -0.284 N 
ATOM     23  N3  CHE B   05     21.685  70.529   6.575  0.00  0.00    -0.172 NA
ATOM     24  C14 CHE B   05     18.104  68.713   6.950  0.00  0.00    +0.118 A 
ATOM     25  H14 CHE B   05     18.130  68.644   7.147  0.00  0.00    +0.188 HD
BRANCH  24  26
ATOM     26  C15 CHE B   05     18.033  68.905   6.397  0.00  0.00    +0.091 A 
ATOM     27  C16 CHE B   05     15.675  67.314   4.857  0.00  0.00    +0.030 A 
ATOM     28  C17 CHE B   05     15.595  67.530   4.239  0.00  0.00    +0.004 A 
ATOM     29  C18 CHE B   05     11.983  64.020   4.134  0.00  0.00    +0.020 A 
ATOM     30  C19 CHE B   05     12.131  63.621   5.278  0.00  0.00    +0.111 A 
ATOM     31  N4  CHE B   05     18.102  68.719   6.932  0.00  0.00    -0.253 NA
ENDBRANCH  24  26
ENDBRANCH   3  20
TORSDOF 5
ENDMDL
MODEL 5
REMARK VINA RESULT:      -8.8      3.694      7.762
REMARK  Name = dock_mp/CHEMBL2/CHEMBL205570.pdb
REMARK  5 active torsions:
REMARK  status: ('A' for Active; 'I' for Inactive)
REMARK    1  A    between atoms: N1_4  and  C4_5
REMARK    2  A    between atoms: C4_5  and  C5_6
REMARK    3  A    between atoms: C8_9  and  C9_10
REMARK    4  A    between atoms: C11_12  and  C12_13
REMARK    5  A    between atoms: C14_17  and  C15_18
REMARK                            x       y       z     vdW  Elec       q    Type
REMARK                         _______ _______ _______ _____ _____    ______ ____
ROOT
ATOM      1  C9  CHE B   05     24.779  70.379  11.093  0.00  0.00    +0.072 A 
ATOM      2  C10 CHE B   05     25.890  70.777  10.393  0.00  0.00    +0.037 A 
ATOM      3  C11 CHE B   05     20.753  68.592   7.848  0.00  0.00    -0.011 A 
ATOM      4  C20 CHE B   05     19.020  67.861   7.094  0.00  0.00    +0.028 A 
ATOM      5  C21 CHE B   05     26.045  70.798   9.710  0.00  0.00    +0.112 A 
ATOM      6  N5  CHE B   05     20.351  68.539   9.622  0.00  0.00    -0.255 NA
ENDROOT
BRANCH   1  10
ATOM      7  C5  CHE B   05     20.546  68.010  14.017  0.00  0.00    -0.064 A 
ATOM      8  C6  CHE B   05     25.424  69.409  14.165  0.00  0.00    +0.002 A 
ATOM      9  C7  CHE B   05     18.848  68.408  11.627  0.00  0.00    +0.010 A 
ATOM     10  C8  CHE B   05     21.770  69.229  11.760  0.00  0.00    +0.000 A 
ATOM     11  C22 CHE B   05     16.894  67.837  11.594  0.00  0.00    +0.010 A 
ATOM     12  C23 CHE B   05     20.595  68.195  13.566  0.00  0.00    +0.002 A 
BRANCH   7  13
ATOM     13  C4  CHE B   05     17.537  66.860  14.685  0.00  0.00    -0.043 C 
BRANCH  13  17
ATOM     14  C1  CHE B   05     19.806  65.744  17.301  0.00  0.00    -0.020 C 
ATOM     15  C2  CHE B   05     25.594  65.372  15.386  0.00  0.00    -0.020 C 
ATOM     16  C3  CHE B   05     23.521  65.916  14.645  0.00  0.00    -0.078 C 
ATOM     17  N1  CHE B   05     25.502  65.639  14.511  0.00  0.00    +0.382 N 
ATOM     18  C24 CHE B   05     17.766  66.192  16.874  0.00  0.00    -0.078 C 
ATOM     19  H7  CHE B   05     23.533  65.879  14.768  0.00  0.00    -0.081 HD
ENDBRANCH  13  17
ENDBRANCH   7  13
ENDBRANCH   1  10
BRANCH   3  20
ATOM     20  C12 CHE B   05     18.258  67.509   6.254  0.00  0.00    +0.029 A 
ATOM     21  C13 CHE B   05     20.662  69.047   7.196  0.00  0.00    +0.114 A 
ATOM     22  N2  CHE B   05     18.153  68.026   5.513  0.00  0.00    -0.284 N 
ATOM     23  N3  CHE B   05     22.033  71.215   6.183  0.00  0.00    -0.172 NA
ATOM     24  C14 CHE B   05     18.913  68.747   5.528  0.00  0.00    +0.118 A 
ATOM     25  H14 CHE B   05     18.937  68.628   5.699  0.00  0.00    +0.188 HD
BRANCH  24  26
ATOM     26  C15 CHE B   05     18.845  69.082   5.047  0.00  0.00    +0.091 A 
ATOM     27  C16 CHE B   05     21.563  69.256   3.301  0.00  0.00    +0.030 A 
ATOM     28  C17 CHE B   05     21.487  69.631   2.763  0.00  0.00    +0.004 A 
ATOM     29  C18 CHE B   05     26.318  68.428   1.994  0.00  0.00    +0.020 A 
ATOM     30  C19 CHE B   05     26.457  67.735   2.988  0.00  0.00    +0.111 A 
ATOM     31  N4  CHE B   05     18.910  68.758   5.512  0.00  0.00    -0.253 NA
ENDBRANCH  24  26
ENDBRANCH   3  20
TORSDOF 5
ENDMDL
MODEL 6
REMARK VINA RESULT:      -8.5      3.039      5.008
REMARK  Name = dock_mp/CHEMBL2/CHEMBL205570.pdb
REMARK  5 active torsions:
REMARK  status: ('A' for Active; 'I' for Inactive)
REMARK    1  A    between atoms: N1_4  and  C4_5
REMARK    2  A    between atoms: C4_5  and  C5_6
REMARK    3  A    between atoms: C8_9  and  C9_10
REMARK    4  A    between atoms: C11_12  and  C12_13
REMARK    5  A    between atoms: C14_17  and  C15_18
REMARK                            x       y       z     vdW  Elec       q    Type
REMARK                         _______ _______ _______ _____ _____    ______ ____
ROOT
ATOM      1  C9  CHE B   05     26.033  70.704   9.173  0.00  0.00    +0.072 A 
ATOM      2  C10 CHE B   05     27.292  71.238   9.055  0.00  0.00    +0.037 A 
ATOM      3  C11 CHE B   05     23.529  70.082   4.349  0.00  0.00    -0.011 A 
ATOM      4  C20 CHE B   05     22.222  69.668   2.856  0.00  0.00    +0.028 A 
ATOM      5  C21 CHE B   05     27.675  71.445   8.507  0.00  0.00    +0.112 A 
ATOM      6  N5  CHE B   05     22.533  69.542   5.774  0.00  0.00    -0.255 NA
ENDROOT
BRANCH   1  10
ATOM      7  C5  CHE B   05     20.652  69.052   9.804  0.00  0.00    -0.064 A 
ATOM      8  C6  CHE B   05     24.724  70.940  12.177  0.00  0.00    +0.002 A 
ATOM      9  C7  CHE B   05     20.651  68.405   6.917  0.00  0.00    +0.010 A 
ATOM     10  C8  CHE B   05     23.063  69.536   8.378  0.00  0.00    +0.000 A 
ATOM     11  C22 CHE B   05     19.004  67.649   5.989  0.00  0.00    +0.010 A 
ATOM     12  C23 CHE B   05     20.967  69.073   9.429  0.00  0.00    +0.002 A 
BRANCH   7  13
ATOM     13  C4  CHE B   05     17.682  67.885   9.008  0.00  0.00    -0.043 C 
BRANCH  13  17
ATOM     14  C1  CHE B   05     17.693  68.566  12.583  0.00  0.00    -0.020 C 
ATOM     15  C2  CHE B   05     23.302  68.367  14.990  0.00  0.00    -0.020 C 
ATOM     16  C3  CHE B   05     22.220  68.116  13.012  0.00  0.00    -0.078 C 
ATOM     17  N1  CHE B   05     23.802  68.166  14.245  0.00  0.00    +0.382 N 
ATOM     18  C24 CHE B   05     16.432  68.387  10.872  0.00  0.00    -0.078 C 
ATOM     19  H7  CHE B   05     22.150  68.145  13.118  0.00  0.00    -0.081 HD
ENDBRANCH  13  17
ENDBRANCH   7  13
ENDBRANCH   1  10
BRANCH   3  20
ATOM     20  C12 CHE B   05     21.828  69.601   1.738  0.00  0.00    +0.029 A 
ATOM     21  C13 CHE B   05     23.962  70.330   3.724  0.00  0.00    +0.114 A 
ATOM     22  N2  CHE B   05     22.321  69.884   1.027  0.00  0.00    -0.284 N 
ATOM     23  N3  CHE B   05     26.475  71.442   3.475  0.00  0.00    -0.172 NA
ATOM     24  C14 CHE B   05     23.231  70.241   1.403  0.00  0.00    +0.118 A 
ATOM     25  H14 CHE B   05     23.117  70.176   1.567  0.00  0.00    +0.188 HD
BRANCH  24  26
ATOM     26  C15 CHE B   05     23.550  70.424   0.942  0.00  0.00    +0.091 A 
ATOM     27  C16 CHE B   05     26.437  68.971   0.816  0.00  0.00    +0.030 A 
ATOM     28  C17 CHE B   05     26.795  69.176   0.300  0.00  0.00    +0.004 A 
ATOM     29  C18 CHE B   05     30.185  65.938   2.142  0.00  0.00    +0.020 A 
ATOM     30  C19 CHE B   05     29.525  65.559   3.095  0.00  0.00    +0.111 A 
ATOM     31  N4  CHE B   05     23.242  70.247   1.387  0.00  0.00    -0.253 NA
ENDBRANCH  24  26
ENDBRANCH   3  20
TORSDOF 5
ENDMDL
MODEL 7
REMARK VINA RESULT:      -8.4      3.193      6.055
REMARK  Name = dock_mp/CHEMBL2/CHEMBL205570.pdb
REMARK  5 active torsions:
REMARK  status: ('A' for Active; 'I' for Inactive)
REMARK    1  A    between atoms: N1_4  and  C4_5
REMARK    2  A    between atoms: C4_5  and  C5_6
REMARK    3  A    between atoms: C8_9  and  C9_10
REMARK    4  A    between atoms: C11_12  and  C12_13
REMARK    5  A    between atoms: C14_17  and  C15_18
REMARK                            x       y       z     vdW  Elec       q    Type
REMARK                         _______ _______ _______ _____ _____    ______ ____
ROOT
ATOM      1  C9  CHE B   05     25.724  70.691  10.900  0.00  0.00    +0.072 A 
ATOM      2  C10 CHE B   05     26.945  71.153  10.478  0.00  0.00    +0.037 A 
ATOM      3  C11 CHE B   05     22.154  70.078   6.799  0.00  0.00    -0.011 A 
ATOM      4  C20 CHE B   05     20.522  69.696   5.660  0.00  0.00    +0.028 A 
ATOM      5  C21 CHE B   05     27.202  71.324   9.849  0.00  0.00    +0.112 A 
ATOM      6  N5  CHE B   05     21.487  69.632   8.433  0.00  0.00    -0.255 NA
ENDROOT
BRANCH   1  10
ATOM      7  C5  CHE B   05     20.803  68.610  12.779  0.00  0.00    -0.064 A 
ATOM      8  C6  CHE B   05     25.545  69.875  14.077  0.00  0.00    +0.002 A 
ATOM      9  C7  CHE B   05     19.769  68.922  10.025  0.00  0.00    +0.010 A 
ATOM     10  C8  CHE B   05     22.598  69.666  10.846  0.00  0.00    +0.000 A 
ATOM     11  C22 CHE B   05     17.863  68.407   9.531  0.00  0.00    +0.010 A 
ATOM     12  C23 CHE B   05     20.970  68.768  12.347  0.00  0.00    +0.002 A 
BRANCH   7  13
ATOM     13  C4  CHE B   05     17.677  67.585  12.726  0.00  0.00    -0.043 C 
BRANCH  13  17
ATOM     14  C1  CHE B   05     19.732  66.026  15.293  0.00  0.00    -0.020 C 
ATOM     15  C2  CHE B   05     25.560  65.402  13.574  0.00  0.00    -0.020 C 
ATOM     16  C3  CHE B   05     23.569  66.183  12.816  0.00  0.00    -0.078 C 
ATOM     17  N1  CHE B   05     25.529  65.766  12.730  0.00  0.00    +0.382 N 
ATOM     18  C24 CHE B   05     17.753  66.676  14.838  0.00  0.00    -0.078 C 
ATOM     19  H7  CHE B   05     23.574  66.132  12.935  0.00  0.00    -0.081 HD
ENDBRANCH  13  17
ENDBRANCH   7  13
ENDBRANCH   1  10
BRANCH   3  20
ATOM     20  C12 CHE B   05     19.880  69.621   4.664  0.00  0.00    +0.029 A 
ATOM     21  C13 CHE B   05     22.503  69.874   6.109  0.00  0.00    +0.114 A 
ATOM     22  N2  CHE B   05     20.276  69.389   3.878  0.00  0.00    -0.284 N 
ATOM     23  N3  CHE B   05     25.128  69.528   5.334  0.00  0.00    -0.172 NA
ATOM     24  C14 CHE B   05     21.310  69.379   4.043  0.00  0.00    +0.118 A 
ATOM     25  H14 CHE B   05     21.219  69.433   4.225  0.00  0.00    +0.188 HD
BRANCH  24  26
ATOM     26  C15 CHE B   05     21.567  69.229   3.534  0.00  0.00    +0.091 A 
ATOM     27  C16 CHE B   05     23.746  71.422   2.583  0.00  0.00    +0.030 A 
ATOM     28  C17 CHE B   05     24.034  71.254   2.013  0.00  0.00    +0.004 A 
ATOM     29  C18 CHE B   05     26.522  75.579   2.696  0.00  0.00    +0.020 A 
ATOM     30  C19 CHE B   05     25.991  75.891   3.749  0.00  0.00    +0.111 A 
ATOM     31  N4  CHE B   05     21.319  69.374   4.026  0.00  0.00    -0.253 NA
ENDBRANCH  24  26
ENDBRANCH   3  20
TORSDOF 5
ENDMDL
