MODEL 1
REMARK VINA RESULT:     -10.9      0.000      0.000
REMARK  Name = dock_mp/CHEMBL2/CHEMBL204966.pdb
REMARK  4 active torsions:
REMARK  status: ('A' for Active; 'I' for Inactive)
REMARK    1  A    between atoms: C1_1  and  C2_2
REMARK    2  A    between atoms: C6_6  and  C7_7
REMARK    3  A    between atoms: C12_14  and  C13_15
REMARK    4  A    between atoms: N4_21  and  C18_22
REMARK                            x       y       z     vdW  Elec       q    Type
REMARK                         _______ _______ _______ _____ _____    ______ ____
ROOT
ATOM      1  C7  CHE B   09     17.604  67.929   2.683  0.00  0.00    +0.119 A 
ATOM      2  N1  CHE B   09     22.147  67.653   9.315  0.00  0.00    -0.169 NA
ATOM      3  N2  CHE B   09     22.045  67.676  10.509  0.00  0.00    -0.267 N 
ATOM      4  C8  CHE B   09     19.893  67.790   5.989  0.00  0.00    +0.144 C 
ATOM      5  C9  CHE B   09     17.274  67.971   4.001  0.00  0.00    +0.029 C 
ATOM      6  C10 CHE B   09     15.931  68.071   3.593  0.00  0.00    +0.057 C 
ATOM      7  C11 CHE B   09     18.994  67.880   7.617  0.00  0.00    +0.048 A 
ATOM      8  C12 CHE B   09     16.500  68.023   3.284  0.00  0.00    +0.032 A 
ENDROOT
BRANCH   8   9
ATOM      9  C13 CHE B   09     16.894  68.031   6.483  0.00  0.00    -0.012 A 
ATOM     10  C14 CHE B   09     18.497  68.953  12.278  0.00  0.00    +0.011 A 
ATOM     11  C15 CHE B   09     14.873  66.068   5.655  0.00  0.00    +0.030 A 
ATOM     12  C16 CHE B   09     15.174  66.259   6.595  0.00  0.00    +0.089 A 
ATOM     13  N3  CHE B   09     14.588  65.606   7.031  0.00  0.00    -0.236 NA
ATOM     14  C17 CHE B   09     16.277  66.912  10.433  0.00  0.00    +0.200 A 
ATOM     15  N4  CHE B   09     15.179  66.408   5.428  0.00  0.00    -0.333 N 
ATOM     16  C18 CHE B   09     15.285  66.670   4.185  0.00  0.00    +0.150 C 
ATOM     17  C19 CHE B   09     15.767  66.919   6.155  0.00  0.00    +0.069 A 
ATOM     18  C20 CHE B   09     17.201  68.229   7.419  0.00  0.00    +0.036 A 
ENDBRANCH   8   9
BRANCH   1  24
ATOM     19  C1  CHE B   09     19.043  69.667   1.992  0.00  0.00    +0.065 C 
ATOM     20  C2  CHE B   09     21.905  68.631   8.357  0.00  0.00    +0.039 A 
ATOM     21  C3  CHE B   09     22.110  68.236   9.365  0.00  0.00    +0.023 A 
ATOM     22  C4  CHE B   09     21.615  67.640   9.602  0.00  0.00    +0.004 A 
ATOM     23  C5  CHE B   09     19.442  67.582   6.223  0.00  0.00    +0.030 A 
ATOM     24  C6  CHE B   09     22.168  67.665  10.442  0.00  0.00    +0.092 A 
ATOM     25  N5  CHE B   09     20.229  68.532   5.845  0.00  0.00    -0.250 NA
ENDBRANCH   1  24
TORSDOF 2
ENDMDL
MODEL 2
REMARK VINA RESULT:     -10.6      2.044      4.593
REMARK  Name = dock_mp/CHEMBL2/CHEMBL204966.pdb
REMARK  4 active torsions:
REMARK  status: ('A' for Active; 'I' for Inactive)
REMARK    1  A    between atoms: C1_1  and  C2_2
REMARK    2  A    between atoms: C6_6  and  C7_7
REMARK    3  A    between atoms: C12_14  and  C13_15
REMARK    4  A    between atoms: N4_21  and  C18_22
REMARK                            x       y       z     vdW  Elec       q    Type
REMARK                         _______ _______ _______ _____ _____    ______ ____
ROOT
ATOM      1  C7  CHE B   09     15.345  67.392   4.404  0.00  0.00    +0.119 A 
ATOM      2  N1  CHE B   09     17.244  68.706  12.109  0.00  0.00    -0.169 NA
ATOM      3  N2  CHE B   09     18.202  68.849  12.815  0.00  0.00    -0.267 N 
ATOM      4  C8  CHE B   09     16.276  68.050   8.263  0.00  0.00    +0.144 C 
ATOM      5  C9  CHE B   09     16.547  67.526   5.022  0.00  0.00    +0.029 C 
ATOM      6  C10 CHE B   09     17.143  67.336   3.762  0.00  0.00    +0.057 C 
ATOM      7  C11 CHE B   09     18.090  68.165   8.663  0.00  0.00    +0.048 A 
ATOM      8  C12 CHE B   09     16.531  67.355   3.980  0.00  0.00    +0.032 A 
ENDROOT
BRANCH   8   9
ATOM      9  C13 CHE B   09     18.651  67.805   6.367  0.00  0.00    -0.012 A 
ATOM     10  C14 CHE B   09     21.995  67.727  11.447  0.00  0.00    +0.011 A 
ATOM     11  C15 CHE B   09     19.170  69.615   4.114  0.00  0.00    +0.030 A 
ATOM     12  C16 CHE B   09     19.690  69.561   4.974  0.00  0.00    +0.089 A 
ATOM     13  N3  CHE B   09     20.335  70.266   4.753  0.00  0.00    -0.236 NA
ATOM     14  C17 CHE B   09     21.882  69.469   8.373  0.00  0.00    +0.200 A 
ATOM     15  N4  CHE B   09     18.834  69.249   4.229  0.00  0.00    -0.333 N 
ATOM     16  C18 CHE B   09     17.867  68.814   3.523  0.00  0.00    +0.150 C 
ATOM     17  C19 CHE B   09     19.038  68.850   5.197  0.00  0.00    +0.069 A 
ATOM     18  C20 CHE B   09     19.164  67.744   7.229  0.00  0.00    +0.036 A 
ENDBRANCH   8   9
BRANCH   1  24
ATOM     19  C1  CHE B   09     14.243  65.455   5.183  0.00  0.00    +0.065 C 
ATOM     20  C2  CHE B   09     16.890  67.518  11.389  0.00  0.00    +0.039 A 
ATOM     21  C3  CHE B   09     17.424  68.087  12.165  0.00  0.00    +0.023 A 
ATOM     22  C4  CHE B   09     17.802  68.751  11.898  0.00  0.00    +0.004 A 
ATOM     23  C5  CHE B   09     16.702  68.297   8.060  0.00  0.00    +0.030 A 
ATOM     24  C6  CHE B   09     18.070  68.853  12.862  0.00  0.00    +0.092 A 
ATOM     25  N5  CHE B   09     16.100  67.239   8.486  0.00  0.00    -0.250 NA
ENDBRANCH   1  24
TORSDOF 2
ENDMDL
MODEL 3
REMARK VINA RESULT:     -10.6      2.368      4.576
REMARK  Name = dock_mp/CHEMBL2/CHEMBL204966.pdb
REMARK  4 active torsions:
REMARK  status: ('A' for Active; 'I' for Inactive)
REMARK    1  A    between atoms: C1_1  and  C2_2
REMARK    2  A    between atoms: C6_6  and  C7_7
REMARK    3  A    between atoms: C12_14  and  C13_15
REMARK    4  A    between atoms: N4_21  and  C18_22
REMARK                            x       y       z     vdW  Elec       q    Type
REMARK                         _______ _______ _______ _____ _____    ______ ____
ROOT
ATOM      1  C7  CHE B   09     15.486  67.785   5.628  0.00  0.00    +0.119 A 
ATOM      2  N1  CHE B   09     21.417  70.856  10.112  0.00  0.00    -0.169 NA
ATOM      3  N2  CHE B   09     22.597  71.058  10.073  0.00  0.00    -0.267 N 
ATOM      4  C8  CHE B   09     18.440  69.325   7.886  0.00  0.00    +0.144 C 
ATOM      5  C9  CHE B   09     16.816  67.926   5.385  0.00  0.00    +0.029 C 
ATOM      6  C10 CHE B   09     16.582  67.331   4.131  0.00  0.00    +0.057 C 
ATOM      7  C11 CHE B   09     20.142  69.311   7.133  0.00  0.00    +0.048 A 
ATOM      8  C12 CHE B   09     16.209  67.486   4.641  0.00  0.00    +0.032 A 
ENDROOT
BRANCH   8   9
ATOM      9  C13 CHE B   09     19.291  68.282   5.151  0.00  0.00    -0.012 A 
ATOM     10  C14 CHE B   09     24.948  69.156   7.208  0.00  0.00    +0.011 A 
ATOM     11  C15 CHE B   09     18.331  69.301   2.569  0.00  0.00    +0.030 A 
ATOM     12  C16 CHE B   09     19.253  69.417   2.956  0.00  0.00    +0.089 A 
ATOM     13  N3  CHE B   09     19.618  69.934   2.208  0.00  0.00    -0.236 NA
ATOM     14  C17 CHE B   09     23.003  69.970   4.371  0.00  0.00    +0.200 A 
ATOM     15  N4  CHE B   09     18.141  69.032   2.959  0.00  0.00    -0.333 N 
ATOM     16  C18 CHE B   09     16.966  68.557   3.091  0.00  0.00    +0.150 C 
ATOM     17  C19 CHE B   09     18.884  68.894   3.711  0.00  0.00    +0.069 A 
ATOM     18  C20 CHE B   09     20.209  68.392   5.544  0.00  0.00    +0.036 A 
ENDBRANCH   8   9
BRANCH   1  24
ATOM     19  C1  CHE B   09     15.173  66.249   7.392  0.00  0.00    +0.065 C 
ATOM     20  C2  CHE B   09     20.791  69.555  10.090  0.00  0.00    +0.039 A 
ATOM     21  C3  CHE B   09     21.638  70.245  10.226  0.00  0.00    +0.023 A 
ATOM     22  C4  CHE B   09     21.745  70.772   9.621  0.00  0.00    +0.004 A 
ATOM     23  C5  CHE B   09     18.652  69.458   7.419  0.00  0.00    +0.030 A 
ATOM     24  C6  CHE B   09     22.517  71.091  10.182  0.00  0.00    +0.092 A 
ATOM     25  N5  CHE B   09     18.481  68.618   8.383  0.00  0.00    -0.250 NA
ENDBRANCH   1  24
TORSDOF 2
ENDMDL
MODEL 4
REMARK VINA RESULT:     -10.2      1.824      7.490
REMARK  Name = dock_mp/CHEMBL2/CHEMBL204966.pdb
REMARK  4 active torsions:
REMARK  status: ('A' for Active; 'I' for Inactive)
REMARK    1  A    between atoms: C1_1  and  C2_2
REMARK    2  A    between atoms: C6_6  and  C7_7
REMARK    3  A    between atoms: C12_14  and  C13_15
REMARK    4  A    between atoms: N4_21  and  C18_22
REMARK                            x       y       z     vdW  Elec       q    Type
REMARK                         _______ _______ _______ _____ _____    ______ ____
ROOT
ATOM      1  C7  CHE B   09     20.547  68.784  11.248  0.00  0.00    +0.119 A 
ATOM      2  N1  CHE B   09     15.328  65.205   6.283  0.00  0.00    -0.169 NA
ATOM      3  N2  CHE B   09     14.913  65.285   5.161  0.00  0.00    -0.267 N 
ATOM      4  C8  CHE B   09     17.931  66.981   8.779  0.00  0.00    +0.144 C 
ATOM      5  C9  CHE B   09     20.214  69.043   9.957  0.00  0.00    +0.029 C 
ATOM      6  C10 CHE B   09     21.142  70.100   9.998  0.00  0.00    +0.057 C 
ATOM      7  C11 CHE B   09     17.800  67.687   7.062  0.00  0.00    +0.048 A 
ATOM      8  C12 CHE B   09     20.939  69.652  10.424  0.00  0.00    +0.032 A 
ENDROOT
BRANCH   8   9
ATOM      9  C13 CHE B   09     19.448  69.340   7.583  0.00  0.00    -0.012 A 
ATOM     10  C14 CHE B   09     15.642  68.388   2.934  0.00  0.00    +0.011 A 
ATOM     11  C15 CHE B   09     22.217  70.256   7.247  0.00  0.00    +0.030 A 
ATOM     12  C16 CHE B   09     21.549  70.083   6.515  0.00  0.00    +0.089 A 
ATOM     13  N3  CHE B   09     22.141  70.320   5.771  0.00  0.00    -0.236 NA
ATOM     14  C17 CHE B   09     18.977  69.435   3.459  0.00  0.00    +0.200 A 
ATOM     15  N4  CHE B   09     21.909  70.133   7.634  0.00  0.00    -0.333 N 
ATOM     16  C18 CHE B   09     22.166  70.141   8.882  0.00  0.00    +0.150 C 
ATOM     17  C19 CHE B   09     20.950  69.845   7.267  0.00  0.00    +0.069 A 
ATOM     18  C20 CHE B   09     18.773  69.165   6.859  0.00  0.00    +0.036 A 
ENDBRANCH   8   9
BRANCH   1  24
ATOM     19  C1  CHE B   09     18.716  69.011  12.720  0.00  0.00    +0.065 C 
ATOM     20  C2  CHE B   09     15.176  66.106   7.353  0.00  0.00    +0.039 A 
ATOM     21  C3  CHE B   09     14.930  65.659   6.378  0.00  0.00    +0.023 A 
ATOM     22  C4  CHE B   09     15.558  65.581   5.873  0.00  0.00    +0.004 A 
ATOM     23  C5  CHE B   09     18.266  67.156   8.389  0.00  0.00    +0.030 A 
ATOM     24  C6  CHE B   09     14.870  65.188   5.253  0.00  0.00    +0.092 A 
ATOM     25  N5  CHE B   09     17.265  67.280   9.193  0.00  0.00    -0.250 NA
ENDBRANCH   1  24
TORSDOF 2
ENDMDL
MODEL 5
REMARK VINA RESULT:     -10.0      2.328      2.966
REMARK  Name = dock_mp/CHEMBL2/CHEMBL204966.pdb
REMARK  4 active torsions:
REMARK  status: ('A' for Active; 'I' for Inactive)
REMARK    1  A    between atoms: C1_1  and  C2_2
REMARK    2  A    between atoms: C6_6  and  C7_7
REMARK    3  A    between atoms: C12_14  and  C13_15
REMARK    4  A    between atoms: N4_21  and  C18_22
REMARK                            x       y       z     vdW  Elec       q    Type
REMARK                         _______ _______ _______ _____ _____    ______ ____
ROOT
ATOM      1  C7  CHE B   09     17.503  68.705   4.526  0.00  0.00    +0.119 A 
ATOM      2  N1  CHE B   09     22.729  71.441   9.995  0.00  0.00    -0.169 NA
ATOM      3  N2  CHE B   09     23.114  71.208  11.105  0.00  0.00    -0.267 N 
ATOM      4  C8  CHE B   09     20.123  70.088   7.249  0.00  0.00    +0.144 C 
ATOM      5  C9  CHE B   09     17.797  68.276   5.781  0.00  0.00    +0.029 C 
ATOM      6  C10 CHE B   09     16.833  67.268   5.592  0.00  0.00    +0.057 C 
ATOM      7  C11 CHE B   09     20.189  69.170   8.867  0.00  0.00    +0.048 A 
ATOM      8  C12 CHE B   09     17.061  67.757   5.229  0.00  0.00    +0.032 A 
ENDROOT
BRANCH   8   9
ATOM      9  C13 CHE B   09     18.497  67.659   8.114  0.00  0.00    -0.012 A 
ATOM     10  C14 CHE B   09     22.248  67.200  12.880  0.00  0.00    +0.011 A 
ATOM     11  C15 CHE B   09     15.639  68.288   8.357  0.00  0.00    +0.030 A 
ATOM     12  C16 CHE B   09     16.301  68.201   9.110  0.00  0.00    +0.089 A 
ATOM     13  N3  CHE B   09     15.666  68.389   9.833  0.00  0.00    -0.236 NA
ATOM     14  C17 CHE B   09     18.838  67.884  12.245  0.00  0.00    +0.200 A 
ATOM     15  N4  CHE B   09     15.969  68.190   7.981  0.00  0.00    -0.333 N 
ATOM     16  C18 CHE B   09     15.747  68.147   6.727  0.00  0.00    +0.150 C 
ATOM     17  C19 CHE B   09     16.941  68.011   8.379  0.00  0.00    +0.069 A 
ATOM     18  C20 CHE B   09     19.165  67.569   8.859  0.00  0.00    +0.036 A 
ENDBRANCH   8   9
BRANCH   1  24
ATOM     19  C1  CHE B   09     19.311  68.838   3.015  0.00  0.00    +0.065 C 
ATOM     20  C2  CHE B   09     22.848  70.803   8.794  0.00  0.00    +0.039 A 
ATOM     21  C3  CHE B   09     23.097  71.065   9.834  0.00  0.00    +0.023 A 
ATOM     22  C4  CHE B   09     22.477  71.019  10.352  0.00  0.00    +0.004 A 
ATOM     23  C5  CHE B   09     19.779  69.847   7.615  0.00  0.00    +0.030 A 
ATOM     24  C6  CHE B   09     23.163  71.313  11.027  0.00  0.00    +0.092 A 
ATOM     25  N5  CHE B   09     20.767  69.919   6.789  0.00  0.00    -0.250 NA
ENDBRANCH   1  24
TORSDOF 2
ENDMDL
MODEL 6
REMARK VINA RESULT:      -9.8      2.091      6.816
REMARK  Name = dock_mp/CHEMBL2/CHEMBL204966.pdb
REMARK  4 active torsions:
REMARK  status: ('A' for Active; 'I' for Inactive)
REMARK    1  A    between atoms: C1_1  and  C2_2
REMARK    2  A    between atoms: C6_6  and  C7_7
REMARK    3  A    between atoms: C12_14  and  C13_15
REMARK    4  A    between atoms: N4_21  and  C18_22
REMARK                            x       y       z     vdW  Elec       q    Type
REMARK                         _______ _______ _______ _____ _____    ______ ____
ROOT
ATOM      1  C7  CHE B   09     22.332  69.658  10.676  0.00  0.00    +0.119 A 
ATOM      2  N1  CHE B   09     17.829  68.854   4.059  0.00  0.00    -0.169 NA
ATOM      3  N2  CHE B   09     16.847  68.287   3.671  0.00  0.00    -0.267 N 
ATOM      4  C8  CHE B   09     20.091  69.268   7.356  0.00  0.00    +0.144 C 
ATOM      5  C9  CHE B   09     21.208  68.933  10.437  0.00  0.00    +0.029 C 
ATOM      6  C10 CHE B   09     21.286  68.495  11.771  0.00  0.00    +0.057 C 
ATOM      7  C11 CHE B   09     18.611  68.147   7.490  0.00  0.00    +0.048 A 
ATOM      8  C12 CHE B   09     21.642  68.891  11.399  0.00  0.00    +0.032 A 
ENDROOT
BRANCH   8   9
ATOM      9  C13 CHE B   09     19.135  67.678   9.775  0.00  0.00    -0.012 A 
ATOM     10  C14 CHE B   09     15.282  65.104   5.834  0.00  0.00    +0.011 A 
ATOM     11  C15 CHE B   09     18.300  68.807  12.353  0.00  0.00    +0.030 A 
ATOM     12  C16 CHE B   09     17.706  68.372  11.668  0.00  0.00    +0.089 A 
ATOM     13  N3  CHE B   09     16.869  68.479  12.167  0.00  0.00    -0.236 NA
ATOM     14  C17 CHE B   09     15.186  66.650   9.012  0.00  0.00    +0.200 A 
ATOM     15  N4  CHE B   09     18.735  68.751  12.094  0.00  0.00    -0.333 N 
ATOM     16  C18 CHE B   09     19.909  69.112  12.433  0.00  0.00    +0.150 C 
ATOM     17  C19 CHE B   09     18.551  68.264  11.163  0.00  0.00    +0.069 A 
ATOM     18  C20 CHE B   09     18.550  67.242   9.084  0.00  0.00    +0.036 A 
ENDBRANCH   8   9
BRANCH   1  24
ATOM     19  C1  CHE B   09     24.140  69.003   9.308  0.00  0.00    +0.065 C 
ATOM     20  C2  CHE B   09     19.069  68.317   4.451  0.00  0.00    +0.039 A 
ATOM     21  C3  CHE B   09     18.088  68.311   3.951  0.00  0.00    +0.023 A 
ATOM     22  C4  CHE B   09     17.468  68.536   4.421  0.00  0.00    +0.004 A 
ATOM     23  C5  CHE B   09     19.689  69.174   7.708  0.00  0.00    +0.030 A 
ATOM     24  C6  CHE B   09     16.924  68.372   3.590  0.00  0.00    +0.092 A 
ATOM     25  N5  CHE B   09     20.677  68.816   6.960  0.00  0.00    -0.250 NA
ENDBRANCH   1  24
TORSDOF 2
ENDMDL
