MODEL 1
REMARK VINA RESULT:     -12.5      0.000      0.000
REMARK  Name = dock_mp/CHEMBL2/CHEMBL204211.pdb
REMARK  6 active torsions:
REMARK  status: ('A' for Active; 'I' for Inactive)
REMARK    1  A    between atoms: C3_3  and  N1_4
REMARK    2  A    between atoms: N1_4  and  C4_5
REMARK    3  A    between atoms: C4_5  and  C5_6
REMARK    4  A    between atoms: C8_9  and  C9_10
REMARK    5  A    between atoms: C11_12  and  C12_13
REMARK    6  A    between atoms: C14_17  and  C15_18
REMARK                            x       y       z     vdW  Elec       q    Type
REMARK                         _______ _______ _______ _____ _____    ______ ____
ROOT
ATOM      1  C9  CHE B   02     20.669  69.686   8.262  0.00  0.00    +0.072 A 
ATOM      2  C10 CHE B   02     19.714  69.326   7.520  0.00  0.00    +0.037 A 
ATOM      3  C11 CHE B   02     22.520  70.277   6.110  0.00  0.00    -0.011 A 
ATOM      4  C20 CHE B   02     15.913  67.926   5.709  0.00  0.00    +0.028 A 
ATOM      5  C21 CHE B   02     15.925  67.953   6.478  0.00  0.00    +0.112 A 
ATOM      6  N5  CHE B   02     20.659  69.664   7.643  0.00  0.00    -0.255 NA
ENDROOT
BRANCH   1  10
ATOM      7  C5  CHE B   02     23.903  69.748  12.190  0.00  0.00    -0.064 A 
ATOM      8  C6  CHE B   02     18.075  68.240  11.729  0.00  0.00    +0.002 A 
ATOM      9  C7  CHE B   02     20.847  69.301  10.319  0.00  0.00    +0.010 A 
ATOM     10  C8  CHE B   02     15.978  68.071   9.796  0.00  0.00    +0.000 A 
ATOM     11  C22 CHE B   02     22.769  69.848  10.235  0.00  0.00    +0.010 A 
ATOM     12  C23 CHE B   02     21.920  69.331  11.580  0.00  0.00    +0.002 A 
BRANCH   7  13
ATOM     13  C4  CHE B   02     20.178  68.395  13.740  0.00  0.00    -0.046 C 
BRANCH  13  14
ATOM     14  N1  CHE B   02     16.462  66.980  14.704  0.00  0.00    +0.384 N 
ATOM     15  H6  CHE B   02     18.525  66.981  14.823  0.00  0.00    -0.085 HD
ATOM     16  H7  CHE B   02     16.348  67.374  14.368  0.00  0.00    -0.085 HD
BRANCH  14  19
ATOM     17  C1  CHE B   02     20.984  65.909  16.295  0.00  0.00    +0.158 C 
ATOM     18  C2  CHE B   02     18.808  66.284  15.839  0.00  0.00    +0.012 C 
ATOM     19  C3  CHE B   02     18.631  66.617  15.133  0.00  0.00    -0.067 C 
ATOM     20  C24 CHE B   02     24.675  66.396  14.578  0.00  0.00    +0.012 C 
ATOM     21  C25 CHE B   02     18.190  65.591  17.481  0.00  0.00    +0.158 C 
ATOM     22  O1  CHE B   02     25.058  65.677  16.104  0.00  0.00    -0.380 OA
ENDBRANCH  14  19
ENDBRANCH  13  14
ENDBRANCH   7  13
ENDBRANCH   1  10
BRANCH   3  23
ATOM     23  C12 CHE B   02     17.794  68.584   5.435  0.00  0.00    +0.029 A 
ATOM     24  C13 CHE B   02     21.584  69.884   5.611  0.00  0.00    +0.114 A 
ATOM     25  N2  CHE B   02     19.708  69.112   4.713  0.00  0.00    -0.284 N 
ATOM     26  N3  CHE B   02     16.881  68.043   3.958  0.00  0.00    -0.172 NA
ATOM     27  C14 CHE B   02     15.923  67.785   4.358  0.00  0.00    +0.118 A 
ATOM     28  H14 CHE B   02     22.556  70.050   4.598  0.00  0.00    +0.188 HD
BRANCH  27  29
ATOM     29  C15 CHE B   02     22.580  69.892   3.550  0.00  0.00    +0.091 A 
ATOM     30  C16 CHE B   02     18.658  68.936   2.359  0.00  0.00    +0.030 A 
ATOM     31  C17 CHE B   02     21.480  69.904   1.582  0.00  0.00    +0.004 A 
ATOM     32  C18 CHE B   02     16.735  68.377   2.301  0.00  0.00    +0.020 A 
ATOM     33  C19 CHE B   02     15.869  67.898   3.609  0.00  0.00    +0.111 A 
ATOM     34  N4  CHE B   02     19.748  68.946   4.188  0.00  0.00    -0.253 NA
ENDBRANCH  27  29
ENDBRANCH   3  23
TORSDOF 6
ENDMDL
MODEL 2
REMARK VINA RESULT:     -11.8      2.242      2.869
REMARK  Name = dock_mp/CHEMBL2/CHEMBL204211.pdb
REMARK  6 active torsions:
REMARK  status: ('A' for Active; 'I' for Inactive)
REMARK    1  A    between atoms: C3_3  and  N1_4
REMARK    2  A    between atoms: N1_4  and  C4_5
REMARK    3  A    between atoms: C4_5  and  C5_6
REMARK    4  A    between atoms: C8_9  and  C9_10
REMARK    5  A    between atoms: C11_12  and  C12_13
REMARK    6  A    between atoms: C14_17  and  C15_18
REMARK                            x       y       z     vdW  Elec       q    Type
REMARK                         _______ _______ _______ _____ _____    ______ ____
ROOT
ATOM      1  C9  CHE B   02     20.201  69.601   8.254  0.00  0.00    +0.072 A 
ATOM      2  C10 CHE B   02     19.226  68.854   7.962  0.00  0.00    +0.037 A 
ATOM      3  C11 CHE B   02     21.011  70.127   5.520  0.00  0.00    -0.011 A 
ATOM      4  C20 CHE B   02     15.690  66.176   7.850  0.00  0.00    +0.028 A 
ATOM      5  C21 CHE B   02     15.931  66.381   8.552  0.00  0.00    +0.112 A 
ATOM      6  N5  CHE B   02     20.007  69.436   7.689  0.00  0.00    -0.255 NA
ENDROOT
BRANCH   1  10
ATOM      7  C5  CHE B   02     24.542  70.873  10.585  0.00  0.00    -0.064 A 
ATOM      8  C6  CHE B   02     19.525  68.130  12.522  0.00  0.00    +0.002 A 
ATOM      9  C7  CHE B   02     21.220  69.545  10.089  0.00  0.00    +0.010 A 
ATOM     10  C8  CHE B   02     16.971  67.263  11.580  0.00  0.00    +0.000 A 
ATOM     11  C22 CHE B   02     22.775  70.466   9.231  0.00  0.00    +0.010 A 
ATOM     12  C23 CHE B   02     22.643  69.971  10.823  0.00  0.00    +0.002 A 
BRANCH   7  13
ATOM     13  C4  CHE B   02     22.118  68.994  13.534  0.00  0.00    -0.046 C 
BRANCH  13  14
ATOM     14  N1  CHE B   02     20.256  67.122  16.659  0.00  0.00    +0.384 N 
ATOM     15  H6  CHE B   02     21.499  67.165  15.009  0.00  0.00    -0.085 HD
ATOM     16  H7  CHE B   02     20.082  67.620  16.708  0.00  0.00    -0.085 HD
BRANCH  14  19
ATOM     17  C1  CHE B   02     23.489  65.574  13.302  0.00  0.00    +0.158 C 
ATOM     18  C2  CHE B   02     22.069  66.017  14.996  0.00  0.00    +0.012 C 
ATOM     19  C3  CHE B   02     21.661  66.705  14.965  0.00  0.00    -0.067 C 
ATOM     20  C24 CHE B   02     24.807  67.247   9.799  0.00  0.00    +0.012 C 
ATOM     21  C25 CHE B   02     22.441  64.418  15.925  0.00  0.00    +0.158 C 
ATOM     22  O1  CHE B   02     25.691  65.761   9.866  0.00  0.00    -0.380 OA
ENDBRANCH  14  19
ENDBRANCH  13  14
ENDBRANCH   7  13
ENDBRANCH   1  10
BRANCH   3  23
ATOM     23  C12 CHE B   02     17.089  67.202   6.830  0.00  0.00    +0.029 A 
ATOM     24  C13 CHE B   02     20.095  69.466   5.447  0.00  0.00    +0.114 A 
ATOM     25  N2  CHE B   02     18.299  68.165   5.391  0.00  0.00    -0.284 N 
ATOM     26  N3  CHE B   02     15.819  66.338   5.855  0.00  0.00    -0.172 NA
ATOM     27  C14 CHE B   02     15.228  65.864   6.611  0.00  0.00    +0.118 A 
ATOM     28  H14 CHE B   02     20.464  69.812   4.126  0.00  0.00    +0.188 HD
BRANCH  27  29
ATOM     29  C15 CHE B   02     20.085  69.594   3.160  0.00  0.00    +0.091 A 
ATOM     30  C16 CHE B   02     16.515  67.420   3.657  0.00  0.00    +0.030 A 
ATOM     31  C17 CHE B   02     18.390  69.008   1.795  0.00  0.00    +0.004 A 
ATOM     32  C18 CHE B   02     14.989  66.347   4.385  0.00  0.00    +0.020 A 
ATOM     33  C19 CHE B   02     14.868  65.845   5.942  0.00  0.00    +0.111 A 
ATOM     34  N4  CHE B   02     18.144  68.003   4.899  0.00  0.00    -0.253 NA
ENDBRANCH  27  29
ENDBRANCH   3  23
TORSDOF 6
ENDMDL
MODEL 3
REMARK VINA RESULT:     -11.4      2.256      2.958
REMARK  Name = dock_mp/CHEMBL2/CHEMBL204211.pdb
REMARK  6 active torsions:
REMARK  status: ('A' for Active; 'I' for Inactive)
REMARK    1  A    between atoms: C3_3  and  N1_4
REMARK    2  A    between atoms: N1_4  and  C4_5
REMARK    3  A    between atoms: C4_5  and  C5_6
REMARK    4  A    between atoms: C8_9  and  C9_10
REMARK    5  A    between atoms: C11_12  and  C12_13
REMARK    6  A    between atoms: C14_17  and  C15_18
REMARK                            x       y       z     vdW  Elec       q    Type
REMARK                         _______ _______ _______ _____ _____    ______ ____
ROOT
ATOM      1  C9  CHE B   02     20.213  69.614   8.290  0.00  0.00    +0.072 A 
ATOM      2  C10 CHE B   02     19.235  68.867   8.010  0.00  0.00    +0.037 A 
ATOM      3  C11 CHE B   02     20.984  70.146   5.545  0.00  0.00    -0.011 A 
ATOM      4  C20 CHE B   02     15.699  66.188   7.943  0.00  0.00    +0.028 A 
ATOM      5  C21 CHE B   02     15.950  66.391   8.642  0.00  0.00    +0.112 A 
ATOM      6  N5  CHE B   02     20.011  69.450   7.727  0.00  0.00    -0.255 NA
ENDROOT
BRANCH   1  10
ATOM      7  C5  CHE B   02     24.583  70.891  10.563  0.00  0.00    -0.064 A 
ATOM      8  C6  CHE B   02     19.596  68.137  12.564  0.00  0.00    +0.002 A 
ATOM      9  C7  CHE B   02     21.257  69.558  10.111  0.00  0.00    +0.010 A 
ATOM     10  C8  CHE B   02     17.031  67.267  11.656  0.00  0.00    +0.000 A 
ATOM     11  C22 CHE B   02     22.798  70.482   9.233  0.00  0.00    +0.010 A 
ATOM     12  C23 CHE B   02     22.689  69.985  10.825  0.00  0.00    +0.002 A 
BRANCH   7  13
ATOM     13  C4  CHE B   02     22.201  69.005  13.542  0.00  0.00    -0.046 C 
BRANCH  13  14
ATOM     14  N1  CHE B   02     19.998  66.720  16.125  0.00  0.00    +0.384 N 
ATOM     15  H6  CHE B   02     21.696  67.758  15.566  0.00  0.00    -0.085 HD
ATOM     16  H7  CHE B   02     19.666  66.778  15.716  0.00  0.00    -0.085 HD
BRANCH  14  19
ATOM     17  C1  CHE B   02     24.607  68.412  16.265  0.00  0.00    +0.158 C 
ATOM     18  C2  CHE B   02     22.581  67.437  16.428  0.00  0.00    +0.012 C 
ATOM     19  C3  CHE B   02     22.003  67.705  15.944  0.00  0.00    -0.067 C 
ATOM     20  C24 CHE B   02     26.507  71.356  14.136  0.00  0.00    +0.012 C 
ATOM     21  C25 CHE B   02     23.100  66.242  17.792  0.00  0.00    +0.158 C 
ATOM     22  O1  CHE B   02     27.757  70.778  15.183  0.00  0.00    -0.380 OA
ENDBRANCH  14  19
ENDBRANCH  13  14
ENDBRANCH   7  13
ENDBRANCH   1  10
BRANCH   3  23
ATOM     23  C12 CHE B   02     17.082  67.216   6.905  0.00  0.00    +0.029 A 
ATOM     24  C13 CHE B   02     20.077  69.472   5.483  0.00  0.00    +0.114 A 
ATOM     25  N2  CHE B   02     18.298  68.147   5.449  0.00  0.00    -0.284 N 
ATOM     26  N3  CHE B   02     15.835  66.305   5.944  0.00  0.00    -0.172 NA
ATOM     27  C14 CHE B   02     15.241  65.849   6.708  0.00  0.00    +0.118 A 
ATOM     28  H14 CHE B   02     20.458  69.779   4.156  0.00  0.00    +0.188 HD
BRANCH  27  29
ATOM     29  C15 CHE B   02     20.094  69.525   3.194  0.00  0.00    +0.091 A 
ATOM     30  C16 CHE B   02     16.502  67.399   3.740  0.00  0.00    +0.030 A 
ATOM     31  C17 CHE B   02     18.369  68.968   1.854  0.00  0.00    +0.004 A 
ATOM     32  C18 CHE B   02     14.972  66.345   4.489  0.00  0.00    +0.020 A 
ATOM     33  C19 CHE B   02     14.869  65.838   6.045  0.00  0.00    +0.111 A 
ATOM     34  N4  CHE B   02     18.158  67.954   4.958  0.00  0.00    -0.253 NA
ENDBRANCH  27  29
ENDBRANCH   3  23
TORSDOF 6
ENDMDL
MODEL 4
REMARK VINA RESULT:     -11.3      4.923      9.558
REMARK  Name = dock_mp/CHEMBL2/CHEMBL204211.pdb
REMARK  6 active torsions:
REMARK  status: ('A' for Active; 'I' for Inactive)
REMARK    1  A    between atoms: C3_3  and  N1_4
REMARK    2  A    between atoms: N1_4  and  C4_5
REMARK    3  A    between atoms: C4_5  and  C5_6
REMARK    4  A    between atoms: C8_9  and  C9_10
REMARK    5  A    between atoms: C11_12  and  C12_13
REMARK    6  A    between atoms: C14_17  and  C15_18
REMARK                            x       y       z     vdW  Elec       q    Type
REMARK                         _______ _______ _______ _____ _____    ______ ____
ROOT
ATOM      1  C9  CHE B   02     21.450  69.430   3.726  0.00  0.00    +0.072 A 
ATOM      2  C10 CHE B   02     20.949  68.975   4.792  0.00  0.00    +0.037 A 
ATOM      3  C11 CHE B   02     19.006  69.312   2.169  0.00  0.00    -0.011 A 
ATOM      4  C20 CHE B   02     20.046  67.482   8.871  0.00  0.00    +0.028 A 
ATOM      5  C21 CHE B   02     20.775  67.699   8.750  0.00  0.00    +0.112 A 
ATOM      6  N5  CHE B   02     20.863  69.255   3.824  0.00  0.00    -0.255 NA
ENDROOT
BRANCH   1  10
ATOM      7  C5  CHE B   02     24.782  70.508   0.035  0.00  0.00    -0.064 A 
ATOM      8  C6  CHE B   02     25.457  69.271   5.906  0.00  0.00    +0.002 A 
ATOM      9  C7  CHE B   02     23.491  69.686   3.306  0.00  0.00    +0.010 A 
ATOM     10  C8  CHE B   02     23.916  68.638   8.227  0.00  0.00    +0.000 A 
ATOM     11  C22 CHE B   02     23.030  70.068   1.398  0.00  0.00    +0.010 A 
ATOM     12  C23 CHE B   02     24.553  70.039   2.086  0.00  0.00    +0.002 A 
BRANCH   7  13
ATOM     13  C4  CHE B   02     27.076  69.914   3.569  0.00  0.00    -0.046 C 
BRANCH  13  14
ATOM     14  N1  CHE B   02     29.056  69.819   7.148  0.00  0.00    +0.384 N 
ATOM     15  H6  CHE B   02     28.211  70.790   5.531  0.00  0.00    -0.085 HD
ATOM     16  H7  CHE B   02     28.976  69.304   7.052  0.00  0.00    -0.085 HD
BRANCH  14  19
ATOM     17  C1  CHE B   02     27.408  73.497   4.341  0.00  0.00    +0.158 C 
ATOM     18  C2  CHE B   02     28.182  72.022   5.860  0.00  0.00    +0.012 C 
ATOM     19  C3  CHE B   02     28.286  71.266   5.621  0.00  0.00    -0.067 C 
ATOM     20  C24 CHE B   02     26.245  73.630   0.412  0.00  0.00    +0.012 C 
ATOM     21  C25 CHE B   02     28.295  73.288   7.254  0.00  0.00    +0.158 C 
ATOM     22  O1  CHE B   02     26.021  75.265   0.930  0.00  0.00    -0.380 OA
ENDBRANCH  14  19
ENDBRANCH  13  14
ENDBRANCH   7  13
ENDBRANCH   1  10
BRANCH   3  23
ATOM     23  C12 CHE B   02     19.381  67.895   7.018  0.00  0.00    +0.029 A 
ATOM     24  C13 CHE B   02     18.734  68.921   3.196  0.00  0.00    +0.114 A 
ATOM     25  N2  CHE B   02     18.283  68.169   5.234  0.00  0.00    -0.284 N 
ATOM     26  N3  CHE B   02     18.174  67.216   8.198  0.00  0.00    -0.172 NA
ATOM     27  C14 CHE B   02     18.761  67.090   9.083  0.00  0.00    +0.118 A 
ATOM     28  H14 CHE B   02     17.562  68.866   2.406  0.00  0.00    +0.188 HD
BRANCH  27  29
ATOM     29  C15 CHE B   02     16.561  68.558   2.571  0.00  0.00    +0.091 A 
ATOM     30  C16 CHE B   02     16.317  66.998   6.472  0.00  0.00    +0.030 A 
ATOM     31  C17 CHE B   02     14.983  67.439   3.728  0.00  0.00    +0.004 A 
ATOM     32  C18 CHE B   02     16.683  66.452   8.365  0.00  0.00    +0.020 A 
ATOM     33  C19 CHE B   02     18.080  66.763   9.165  0.00  0.00    +0.111 A 
ATOM     34  N4  CHE B   02     17.769  68.056   5.330  0.00  0.00    -0.253 NA
ENDBRANCH  27  29
ENDBRANCH   3  23
TORSDOF 6
ENDMDL
MODEL 5
REMARK VINA RESULT:     -11.0      3.644     10.147
REMARK  Name = dock_mp/CHEMBL2/CHEMBL204211.pdb
REMARK  6 active torsions:
REMARK  status: ('A' for Active; 'I' for Inactive)
REMARK    1  A    between atoms: C3_3  and  N1_4
REMARK    2  A    between atoms: N1_4  and  C4_5
REMARK    3  A    between atoms: C4_5  and  C5_6
REMARK    4  A    between atoms: C8_9  and  C9_10
REMARK    5  A    between atoms: C11_12  and  C12_13
REMARK    6  A    between atoms: C14_17  and  C15_18
REMARK                            x       y       z     vdW  Elec       q    Type
REMARK                         _______ _______ _______ _____ _____    ______ ____
ROOT
ATOM      1  C9  CHE B   02     21.393  70.007  10.564  0.00  0.00    +0.072 A 
ATOM      2  C10 CHE B   02     20.836  69.318  11.463  0.00  0.00    +0.037 A 
ATOM      3  C11 CHE B   02     23.948  70.259  11.911  0.00  0.00    -0.011 A 
ATOM      4  C20 CHE B   02     18.152  66.921  14.057  0.00  0.00    +0.028 A 
ATOM      5  C21 CHE B   02     17.846  67.159  13.392  0.00  0.00    +0.112 A 
ATOM      6  N5  CHE B   02     21.638  69.815  11.099  0.00  0.00    -0.255 NA
ENDROOT
BRANCH   1  10
ATOM      7  C5  CHE B   02     23.329  70.019   5.858  0.00  0.00    -0.064 A 
ATOM      8  C6  CHE B   02     17.960  68.348   8.055  0.00  0.00    +0.002 A 
ATOM      9  C7  CHE B   02     20.976  69.549   8.557  0.00  0.00    +0.010 A 
ATOM     10  C8  CHE B   02     16.530  68.187  10.523  0.00  0.00    +0.000 A 
ATOM     11  C22 CHE B   02     22.815  70.159   8.057  0.00  0.00    +0.010 A 
ATOM     12  C23 CHE B   02     21.632  69.564   7.036  0.00  0.00    +0.002 A 
BRANCH   7  13
ATOM     13  C4  CHE B   02     19.374  68.491   5.510  0.00  0.00    -0.046 C 
BRANCH  13  14
ATOM     14  N1  CHE B   02     15.402  67.546   5.249  0.00  0.00    +0.384 N 
ATOM     15  H6  CHE B   02     17.208  68.164   4.458  0.00  0.00    -0.085 HD
ATOM     16  H7  CHE B   02     15.502  67.464   5.763  0.00  0.00    -0.085 HD
BRANCH  14  19
ATOM     17  C1  CHE B   02     18.643  69.225   1.962  0.00  0.00    +0.158 C 
ATOM     18  C2  CHE B   02     16.936  68.520   3.255  0.00  0.00    +0.012 C 
ATOM     19  C3  CHE B   02     17.115  68.240   3.983  0.00  0.00    -0.067 C 
ATOM     20  C24 CHE B   02     22.724  69.590   2.086  0.00  0.00    +0.012 C 
ATOM     21  C25 CHE B   02     15.607  68.911   1.974  0.00  0.00    +0.158 C 
ATOM     22  O1  CHE B   02     22.337  70.196   0.513  0.00  0.00    -0.380 OA
ENDBRANCH  14  19
ENDBRANCH  13  14
ENDBRANCH   7  13
ENDBRANCH   1  10
BRANCH   3  23
ATOM     23  C12 CHE B   02     19.962  67.754  13.780  0.00  0.00    +0.029 A 
ATOM     24  C13 CHE B   02     23.299  69.638  12.599  0.00  0.00    +0.114 A 
ATOM     25  N2  CHE B   02     21.961  68.428  13.891  0.00  0.00    -0.284 N 
ATOM     26  N3  CHE B   02     19.712  66.810  15.315  0.00  0.00    -0.172 NA
ATOM     27  C14 CHE B   02     18.696  66.486  15.225  0.00  0.00    +0.118 A 
ATOM     28  H14 CHE B   02     24.565  69.759  13.219  0.00  0.00    +0.188 HD
BRANCH  27  29
ATOM     29  C15 CHE B   02     24.992  69.412  14.125  0.00  0.00    +0.091 A 
ATOM     30  C16 CHE B   02     22.045  67.259  16.221  0.00  0.00    +0.030 A 
ATOM     31  C17 CHE B   02     24.912  68.388  16.131  0.00  0.00    +0.004 A 
ATOM     32  C18 CHE B   02     20.360  66.338  16.792  0.00  0.00    +0.020 A 
ATOM     33  C19 CHE B   02     18.991  66.268  15.891  0.00  0.00    +0.111 A 
ATOM     34  N4  CHE B   02     22.179  68.243  14.338  0.00  0.00    -0.253 NA
ENDBRANCH  27  29
ENDBRANCH   3  23
TORSDOF 6
ENDMDL
MODEL 6
REMARK VINA RESULT:     -11.0      3.972      8.902
REMARK  Name = dock_mp/CHEMBL2/CHEMBL204211.pdb
REMARK  6 active torsions:
REMARK  status: ('A' for Active; 'I' for Inactive)
REMARK    1  A    between atoms: C3_3  and  N1_4
REMARK    2  A    between atoms: N1_4  and  C4_5
REMARK    3  A    between atoms: C4_5  and  C5_6
REMARK    4  A    between atoms: C8_9  and  C9_10
REMARK    5  A    between atoms: C11_12  and  C12_13
REMARK    6  A    between atoms: C14_17  and  C15_18
REMARK                            x       y       z     vdW  Elec       q    Type
REMARK                         _______ _______ _______ _____ _____    ______ ____
ROOT
ATOM      1  C9  CHE B   02     20.987  69.316   7.315  0.00  0.00    +0.072 A 
ATOM      2  C10 CHE B   02     20.012  68.919   6.619  0.00  0.00    +0.037 A 
ATOM      3  C11 CHE B   02     19.855  68.568   9.878  0.00  0.00    -0.011 A 
ATOM      4  C20 CHE B   02     17.092  67.825   3.463  0.00  0.00    +0.028 A 
ATOM      5  C21 CHE B   02     17.744  68.151   3.215  0.00  0.00    +0.112 A 
ATOM      6  N5  CHE B   02     20.462  69.053   7.514  0.00  0.00    -0.255 NA
ENDROOT
BRANCH   1  10
ATOM      7  C5  CHE B   02     25.863  69.716   8.715  0.00  0.00    -0.064 A 
ATOM      8  C6  CHE B   02     23.153  69.746   3.320  0.00  0.00    +0.002 A 
ATOM      9  C7  CHE B   02     22.946  69.547   6.593  0.00  0.00    +0.010 A 
ATOM     10  C8  CHE B   02     20.556  69.556   2.146  0.00  0.00    +0.000 A 
ATOM     11  C22 CHE B   02     23.622  69.510   8.475  0.00  0.00    +0.010 A 
ATOM     12  C23 CHE B   02     24.524  69.675   7.077  0.00  0.00    +0.002 A 
BRANCH   7  13
ATOM     13  C4  CHE B   02     25.825  69.944   4.467  0.00  0.00    -0.046 C 
BRANCH  13  14
ATOM     14  N1  CHE B   02     25.326  70.466   0.440  0.00  0.00    +0.384 N 
ATOM     15  H6  CHE B   02     25.941  71.071   2.317  0.00  0.00    -0.085 HD
ATOM     16  H7  CHE B   02     25.122  69.982   0.515  0.00  0.00    -0.085 HD
BRANCH  14  19
ATOM     17  C1  CHE B   02     27.052  73.390   3.988  0.00  0.00    +0.158 C 
ATOM     18  C2  CHE B   02     26.245  72.307   2.183  0.00  0.00    +0.012 C 
ATOM     19  C3  CHE B   02     26.129  71.518   2.247  0.00  0.00    -0.067 C 
ATOM     20  C24 CHE B   02     28.235  72.616   7.837  0.00  0.00    +0.012 C 
ATOM     21  C25 CHE B   02     26.149  73.857   1.111  0.00  0.00    +0.158 C 
ATOM     22  O1  CHE B   02     28.486  74.322   7.698  0.00  0.00    -0.380 OA
ENDBRANCH  14  19
ENDBRANCH  13  14
ENDBRANCH   7  13
ENDBRANCH   1  10
BRANCH   3  23
ATOM     23  C12 CHE B   02     17.552  67.873   5.421  0.00  0.00    +0.029 A 
ATOM     24  C13 CHE B   02     19.087  68.265   9.104  0.00  0.00    +0.114 A 
ATOM     25  N2  CHE B   02     17.634  67.704   7.525  0.00  0.00    -0.284 N 
ATOM     26  N3  CHE B   02     15.956  67.130   4.964  0.00  0.00    -0.172 NA
ATOM     27  C14 CHE B   02     15.948  67.232   3.899  0.00  0.00    +0.118 A 
ATOM     28  H14 CHE B   02     18.575  67.888  10.367  0.00  0.00    +0.188 HD
BRANCH  27  29
ATOM     29  C15 CHE B   02     17.689  67.417  10.707  0.00  0.00    +0.091 A 
ATOM     30  C16 CHE B   02     15.473  66.277   7.314  0.00  0.00    +0.030 A 
ATOM     31  C17 CHE B   02     15.901  66.087  10.361  0.00  0.00    +0.004 A 
ATOM     32  C18 CHE B   02     14.763  66.043   5.456  0.00  0.00    +0.020 A 
ATOM     33  C19 CHE B   02     15.395  66.763   4.124  0.00  0.00    +0.111 A 
ATOM     34  N4  CHE B   02     17.158  67.520   7.701  0.00  0.00    -0.253 NA
ENDBRANCH  27  29
ENDBRANCH   3  23
TORSDOF 6
ENDMDL
MODEL 7
REMARK VINA RESULT:     -10.9      3.780      7.923
REMARK  Name = dock_mp/CHEMBL2/CHEMBL204211.pdb
REMARK  6 active torsions:
REMARK  status: ('A' for Active; 'I' for Inactive)
REMARK    1  A    between atoms: C3_3  and  N1_4
REMARK    2  A    between atoms: N1_4  and  C4_5
REMARK    3  A    between atoms: C4_5  and  C5_6
REMARK    4  A    between atoms: C8_9  and  C9_10
REMARK    5  A    between atoms: C11_12  and  C12_13
REMARK    6  A    between atoms: C14_17  and  C15_18
REMARK                            x       y       z     vdW  Elec       q    Type
REMARK                         _______ _______ _______ _____ _____    ______ ____
ROOT
ATOM      1  C9  CHE B   02     21.305  69.060   7.528  0.00  0.00    +0.072 A 
ATOM      2  C10 CHE B   02     20.560  69.041   6.510  0.00  0.00    +0.037 A 
ATOM      3  C11 CHE B   02     19.212  68.477   9.448  0.00  0.00    -0.011 A 
ATOM      4  C20 CHE B   02     18.719  69.167   2.475  0.00  0.00    +0.028 A 
ATOM      5  C21 CHE B   02     19.478  69.298   2.499  0.00  0.00    +0.112 A 
ATOM      6  N5  CHE B   02     20.695  68.954   7.508  0.00  0.00    -0.255 NA
ENDROOT
BRANCH   1  10
ATOM      7  C5  CHE B   02     25.356  69.144  10.607  0.00  0.00    -0.064 A 
ATOM      8  C6  CHE B   02     24.753  69.838   4.640  0.00  0.00    +0.002 A 
ATOM      9  C7  CHE B   02     23.391  69.300   7.581  0.00  0.00    +0.010 A 
ATOM     10  C8  CHE B   02     22.748  69.862   2.605  0.00  0.00    +0.000 A 
ATOM     11  C22 CHE B   02     23.350  69.040   9.564  0.00  0.00    +0.010 A 
ATOM     12  C23 CHE B   02     24.691  69.322   8.606  0.00  0.00    +0.002 A 
BRANCH   7  13
ATOM     13  C4  CHE B   02     26.838  69.824   6.677  0.00  0.00    -0.046 C 
BRANCH  13  14
ATOM     14  N1  CHE B   02     28.767  70.395   3.115  0.00  0.00    +0.384 N 
ATOM     15  H6  CHE B   02     28.000  69.219   4.630  0.00  0.00    -0.085 HD
ATOM     16  H7  CHE B   02     28.657  70.892   3.263  0.00  0.00    -0.085 HD
BRANCH  14  19
ATOM     17  C1  CHE B   02     27.430  66.353   5.564  0.00  0.00    +0.158 C 
ATOM     18  C2  CHE B   02     28.097  68.017   4.196  0.00  0.00    +0.012 C 
ATOM     19  C3  CHE B   02     28.101  68.759   4.493  0.00  0.00    -0.067 C 
ATOM     20  C24 CHE B   02     26.115  65.793   9.407  0.00  0.00    +0.012 C 
ATOM     21  C25 CHE B   02     28.417  66.880   2.724  0.00  0.00    +0.158 C 
ATOM     22  O1  CHE B   02     26.105  64.187   8.764  0.00  0.00    -0.380 OA
ENDBRANCH  14  19
ENDBRANCH  13  14
ENDBRANCH   7  13
ENDBRANCH   1  10
BRANCH   3  23
ATOM     23  C12 CHE B   02     18.477  68.903   4.455  0.00  0.00    +0.029 A 
ATOM     24  C13 CHE B   02     18.705  68.487   8.436  0.00  0.00    +0.114 A 
ATOM     25  N2  CHE B   02     17.789  68.527   6.416  0.00  0.00    -0.284 N 
ATOM     26  N3  CHE B   02     17.002  68.711   3.407  0.00  0.00    -0.172 NA
ATOM     27  C14 CHE B   02     17.385  68.907   2.428  0.00  0.00    +0.118 A 
ATOM     28  H14 CHE B   02     17.715  68.163   9.393  0.00  0.00    +0.188 HD
BRANCH  27  29
ATOM     29  C15 CHE B   02     16.678  67.946   9.355  0.00  0.00    +0.091 A 
ATOM     30  C16 CHE B   02     15.544  67.836   5.303  0.00  0.00    +0.030 A 
ATOM     31  C17 CHE B   02     14.841  67.253   8.248  0.00  0.00    +0.004 A 
ATOM     32  C18 CHE B   02     15.478  67.996   3.308  0.00  0.00    +0.020 A 
ATOM     33  C19 CHE B   02     16.688  68.608   2.386  0.00  0.00    +0.111 A 
ATOM     34  N4  CHE B   02     17.253  68.474   6.403  0.00  0.00    -0.253 NA
ENDBRANCH  27  29
ENDBRANCH   3  23
TORSDOF 6
ENDMDL
MODEL 8
REMARK VINA RESULT:     -10.7      2.245      5.350
REMARK  Name = dock_mp/CHEMBL2/CHEMBL204211.pdb
REMARK  6 active torsions:
REMARK  status: ('A' for Active; 'I' for Inactive)
REMARK    1  A    between atoms: C3_3  and  N1_4
REMARK    2  A    between atoms: N1_4  and  C4_5
REMARK    3  A    between atoms: C4_5  and  C5_6
REMARK    4  A    between atoms: C8_9  and  C9_10
REMARK    5  A    between atoms: C11_12  and  C12_13
REMARK    6  A    between atoms: C14_17  and  C15_18
REMARK                            x       y       z     vdW  Elec       q    Type
REMARK                         _______ _______ _______ _____ _____    ______ ____
ROOT
ATOM      1  C9  CHE B   02     18.174  68.260   9.461  0.00  0.00    +0.072 A 
ATOM      2  C10 CHE B   02     18.773  68.543   8.387  0.00  0.00    +0.037 A 
ATOM      3  C11 CHE B   02     15.738  67.309   8.210  0.00  0.00    -0.011 A 
ATOM      4  C20 CHE B   02     21.562  69.797   5.172  0.00  0.00    +0.028 A 
ATOM      5  C21 CHE B   02     21.825  69.878   5.891  0.00  0.00    +0.112 A 
ATOM      6  N5  CHE B   02     17.963  68.194   8.882  0.00  0.00    -0.255 NA
ENDROOT
BRANCH   1  10
ATOM      7  C5  CHE B   02     17.244  66.974  14.296  0.00  0.00    -0.064 A 
ATOM      8  C6  CHE B   02     22.061  69.388  11.572  0.00  0.00    +0.002 A 
ATOM      9  C7  CHE B   02     18.997  68.216  11.393  0.00  0.00    +0.010 A 
ATOM     10  C8  CHE B   02     22.955  70.231   8.993  0.00  0.00    +0.000 A 
ATOM     11  C22 CHE B   02     17.296  67.416  12.077  0.00  0.00    +0.010 A 
ATOM     12  C23 CHE B   02     18.667  67.788  12.958  0.00  0.00    +0.002 A 
BRANCH   7  13
ATOM     13  C4  CHE B   02     21.198  68.543  14.224  0.00  0.00    -0.046 C 
BRANCH  13  14
ATOM     14  N1  CHE B   02     24.980  69.976  13.606  0.00  0.00    +0.384 N 
ATOM     15  H6  CHE B   02     23.608  68.708  14.489  0.00  0.00    -0.085 HD
ATOM     16  H7  CHE B   02     24.691  70.283  13.285  0.00  0.00    -0.085 HD
BRANCH  14  19
ATOM     17  C1  CHE B   02     23.231  66.330  16.393  0.00  0.00    +0.158 C 
ATOM     18  C2  CHE B   02     24.319  67.901  15.198  0.00  0.00    +0.012 C 
ATOM     19  C3  CHE B   02     23.876  68.424  14.785  0.00  0.00    -0.067 C 
ATOM     20  C24 CHE B   02     19.403  65.134  17.247  0.00  0.00    +0.012 C 
ATOM     21  C25 CHE B   02     26.038  67.301  15.693  0.00  0.00    +0.158 C 
ATOM     22  O1  CHE B   02     20.362  64.004  18.138  0.00  0.00    -0.380 OA
ENDBRANCH  14  19
ENDBRANCH  13  14
ENDBRANCH   7  13
ENDBRANCH   1  10
BRANCH   3  23
ATOM     23  C12 CHE B   02     19.766  69.044   5.677  0.00  0.00    +0.029 A 
ATOM     24  C13 CHE B   02     16.429  67.592   7.359  0.00  0.00    +0.114 A 
ATOM     25  N2  CHE B   02     17.842  68.175   5.752  0.00  0.00    -0.284 N 
ATOM     26  N3  CHE B   02     20.149  69.155   3.902  0.00  0.00    -0.172 NA
ATOM     27  C14 CHE B   02     21.123  69.597   3.901  0.00  0.00    +0.118 A 
ATOM     28  H14 CHE B   02     15.261  67.042   6.780  0.00  0.00    +0.188 HD
BRANCH  27  29
ATOM     29  C15 CHE B   02     14.932  66.857   5.790  0.00  0.00    +0.091 A 
ATOM     30  C16 CHE B   02     17.817  68.443   3.168  0.00  0.00    +0.030 A 
ATOM     31  C17 CHE B   02     14.993  67.274   3.576  0.00  0.00    +0.004 A 
ATOM     32  C18 CHE B   02     19.471  69.230   2.358  0.00  0.00    +0.020 A 
ATOM     33  C19 CHE B   02     20.827  69.606   3.202  0.00  0.00    +0.111 A 
ATOM     34  N4  CHE B   02     17.700  68.027   5.253  0.00  0.00    -0.253 NA
ENDBRANCH  27  29
ENDBRANCH   3  23
TORSDOF 6
ENDMDL
