MODEL 1
REMARK VINA RESULT:     -12.0      0.000      0.000
REMARK  Name = dock_mp/CHEMBL2/CHEMBL261674.pdb
REMARK  8 active torsions:
REMARK  status: ('A' for Active; 'I' for Inactive)
REMARK    1  A    between atoms: C1_1  and  N1_2
REMARK    2  A    between atoms: N2_5  and  C4_6
REMARK    3  A    between atoms: C4_6  and  C5_7
REMARK    4  A    between atoms: C5_7  and  C6_8
REMARK    5  A    between atoms: C6_8  and  O1_9
REMARK    6  A    between atoms: O1_9  and  C7_10
REMARK    7  A    between atoms: C11_14  and  C12_15
REMARK    8  A    between atoms: C17_22  and  C18_23
REMARK                            x       y       z     vdW  Elec       q    Type
REMARK                         _______ _______ _______ _____ _____    ______ ____
ROOT
ATOM      1  C7  CHE B   06     24.270  68.238  10.730  0.00  0.00    +0.123 A 
ATOM      2  C8  CHE B   06     21.696  70.278   5.632  0.00  0.00    +0.046 A 
ATOM      3  C9  CHE B   06     21.886  67.742   8.998  0.00  0.00    +0.014 A 
ATOM      4  C10 CHE B   06     21.209  67.891   8.143  0.00  0.00    +0.008 A 
ATOM      5  C11 CHE B   06     18.897  68.791   4.731  0.00  0.00    -0.003 A 
ATOM      6  C23 CHE B   06     18.540  68.516   4.724  0.00  0.00    +0.029 A 
ATOM      7  C24 CHE B   06     20.520  67.360   8.128  0.00  0.00    +0.112 A 
ATOM      8  N6  CHE B   06     22.167  67.288   9.844  0.00  0.00    -0.255 NA
ATOM      9  C25 CHE B   06     23.157  66.710  11.547  0.00  0.00    +0.075 A 
ATOM     10  C26 CHE B   06     22.005  70.516   5.638  0.00  0.00    +0.074 A 
ENDROOT
BRANCH   5  11
ATOM     11  C12 CHE B   06     18.121  68.193   4.715  0.00  0.00    +0.033 A 
ATOM     12  C13 CHE B   06     17.582  67.739   6.703  0.00  0.00    +0.048 A 
ATOM     13  C14 CHE B   06     17.475  67.676   5.701  0.00  0.00    +0.057 C 
ATOM     14  C15 CHE B   06     16.392  66.747  10.676  0.00  0.00    +0.029 C 
ATOM     15  C16 CHE B   06     16.362  66.799   6.676  0.00  0.00    +0.144 C 
ATOM     16  N3  CHE B   06     16.956  67.296   4.690  0.00  0.00    -0.267 N 
ATOM     17  N4  CHE B   06     17.063  67.359   5.692  0.00  0.00    -0.169 NA
ATOM     18  C17 CHE B   06     17.758  67.780  11.706  0.00  0.00    +0.119 A 
BRANCH  18  19
ATOM     19  C18 CHE B   06     18.136  68.205   4.715  0.00  0.00    +0.091 A 
ATOM     20  C19 CHE B   06     18.070  67.938   5.713  0.00  0.00    +0.030 A 
ATOM     21  C20 CHE B   06     18.193  68.313   3.716  0.00  0.00    +0.004 A 
ATOM     22  C21 CHE B   06     17.780  69.000  12.705  0.00  0.00    +0.020 A 
ATOM     23  C22 CHE B   06     17.796  69.270  12.706  0.00  0.00    +0.111 A 
ATOM     24  N5  CHE B   06     18.024  68.860   7.712  0.00  0.00    -0.253 NA
ENDBRANCH  18  19
ENDBRANCH   5  11
BRANCH   1  25
ATOM     25  O1  CHE B   06     25.026  69.492   9.906  0.00  0.00    -0.492 OA
BRANCH  25  26
ATOM     26  C6  CHE B   06     25.847  68.733   9.900  0.00  0.00    +0.227 C 
BRANCH  26  27
ATOM     27  C5  CHE B   06     27.312  68.024   9.143  0.00  0.00    +0.022 C 
BRANCH  27  28
ATOM     28  C4  CHE B   06     27.539  68.013   8.826  0.00  0.00    -0.076 C 
BRANCH  28  33
ATOM     29  C1  CHE B   06     29.003  71.062   4.648  0.00  0.00    -0.096 C 
ATOM     30  N1  CHE B   06     24.742  71.350   1.928  0.00  0.00    +0.375 N 
ATOM     31  C2  CHE B   06     26.600  70.531   4.241  0.00  0.00    -0.098 C 
ATOM     32  C3  CHE B   06     26.474  69.567   5.739  0.00  0.00    -0.098 C 
ATOM     33  N2  CHE B   06     25.371  69.393   5.440  0.00  0.00    +0.377 N 
ATOM     34  C27 CHE B   06     28.036  69.319   6.967  0.00  0.00    -0.098 C 
ATOM     35  C28 CHE B   06     24.908  70.657   3.141  0.00  0.00    -0.098 C 
ATOM     36  H4  CHE B   06     27.394  71.266   3.467  0.00  0.00    -0.082 HD
ATOM     37  H9  CHE B   06     23.971  69.790   4.055  0.00  0.00    -0.082 HD
ENDBRANCH  28  33
ENDBRANCH  27  28
ENDBRANCH  26  27
ENDBRANCH  25  26
ENDBRANCH   1  25
TORSDOF 7
ENDMDL
MODEL 2
REMARK VINA RESULT:     -11.8      2.539      4.293
REMARK  Name = dock_mp/CHEMBL2/CHEMBL261674.pdb
REMARK  8 active torsions:
REMARK  status: ('A' for Active; 'I' for Inactive)
REMARK    1  A    between atoms: C1_1  and  N1_2
REMARK    2  A    between atoms: N2_5  and  C4_6
REMARK    3  A    between atoms: C4_6  and  C5_7
REMARK    4  A    between atoms: C5_7  and  C6_8
REMARK    5  A    between atoms: C6_8  and  O1_9
REMARK    6  A    between atoms: O1_9  and  C7_10
REMARK    7  A    between atoms: C11_14  and  C12_15
REMARK    8  A    between atoms: C17_22  and  C18_23
REMARK                            x       y       z     vdW  Elec       q    Type
REMARK                         _______ _______ _______ _____ _____    ______ ____
ROOT
ATOM      1  C7  CHE B   06     24.031  68.310  11.057  0.00  0.00    +0.123 A 
ATOM      2  C8  CHE B   06     21.636  70.520   5.942  0.00  0.00    +0.046 A 
ATOM      3  C9  CHE B   06     21.767  67.808   9.171  0.00  0.00    +0.014 A 
ATOM      4  C10 CHE B   06     21.130  67.975   8.290  0.00  0.00    +0.008 A 
ATOM      5  C11 CHE B   06     18.961  68.964   4.809  0.00  0.00    -0.003 A 
ATOM      6  C23 CHE B   06     18.619  68.675   4.767  0.00  0.00    +0.029 A 
ATOM      7  C24 CHE B   06     20.469  67.416   8.208  0.00  0.00    +0.112 A 
ATOM      8  N6  CHE B   06     22.025  67.320  10.006  0.00  0.00    -0.255 NA
ATOM      9  C25 CHE B   06     22.949  66.691  11.727  0.00  0.00    +0.075 A 
ATOM     10  C26 CHE B   06     21.933  70.770   5.979  0.00  0.00    +0.074 A 
ENDROOT
BRANCH   5  11
ATOM     11  C12 CHE B   06     18.216  68.335   4.717  0.00  0.00    +0.033 A 
ATOM     12  C13 CHE B   06     17.565  67.781   6.646  0.00  0.00    +0.048 A 
ATOM     13  C14 CHE B   06     17.529  67.752   5.637  0.00  0.00    +0.057 C 
ATOM     14  C15 CHE B   06     16.158  66.582  10.489  0.00  0.00    +0.029 C 
ATOM     15  C16 CHE B   06     16.394  66.791   6.501  0.00  0.00    +0.144 C 
ATOM     16  N3  CHE B   06     17.098  67.390   4.580  0.00  0.00    -0.267 N 
ATOM     17  N4  CHE B   06     17.134  67.418   5.588  0.00  0.00    -0.169 NA
ATOM     18  C17 CHE B   06     17.402  67.632  11.647  0.00  0.00    +0.119 A 
BRANCH  18  19
ATOM     19  C18 CHE B   06     18.231  68.347   4.719  0.00  0.00    +0.091 A 
ATOM     20  C19 CHE B   06     18.089  68.040   5.698  0.00  0.00    +0.030 A 
ATOM     21  C20 CHE B   06     18.355  68.496   3.732  0.00  0.00    +0.004 A 
ATOM     22  C21 CHE B   06     17.433  68.803  12.705  0.00  0.00    +0.020 A 
ATOM     23  C22 CHE B   06     17.464  69.071  12.719  0.00  0.00    +0.111 A 
ATOM     24  N5  CHE B   06     17.973  68.873   7.733  0.00  0.00    -0.253 NA
ENDBRANCH  18  19
ENDBRANCH   5  11
BRANCH   1  25
ATOM     25  O1  CHE B   06     24.770  69.640  10.345  0.00  0.00    -0.492 OA
BRANCH  25  26
ATOM     26  C6  CHE B   06     25.357  68.815   9.870  0.00  0.00    +0.227 C 
BRANCH  26  27
ATOM     27  C5  CHE B   06     26.928  68.094   9.391  0.00  0.00    +0.022 C 
BRANCH  27  28
ATOM     28  C4  CHE B   06     27.222  67.859   9.495  0.00  0.00    -0.076 C 
BRANCH  28  33
ATOM     29  C1  CHE B   06     27.284  63.391  12.484  0.00  0.00    -0.096 C 
ATOM     30  N1  CHE B   06     25.725  59.844   9.224  0.00  0.00    +0.375 N 
ATOM     31  C2  CHE B   06     26.509  62.644  10.234  0.00  0.00    -0.098 C 
ATOM     32  C3  CHE B   06     26.609  64.295   9.560  0.00  0.00    -0.098 C 
ATOM     33  N2  CHE B   06     26.243  63.827   8.569  0.00  0.00    +0.377 N 
ATOM     34  C27 CHE B   06     27.202  65.852  10.670  0.00  0.00    -0.098 C 
ATOM     35  C28 CHE B   06     25.888  61.214   8.947  0.00  0.00    -0.098 C 
ATOM     36  H4  CHE B   06     26.681  61.880  11.310  0.00  0.00    -0.082 HD
ATOM     37  H9  CHE B   06     25.685  62.115   7.677  0.00  0.00    -0.082 HD
ENDBRANCH  28  33
ENDBRANCH  27  28
ENDBRANCH  26  27
ENDBRANCH  25  26
ENDBRANCH   1  25
TORSDOF 7
ENDMDL
MODEL 3
REMARK VINA RESULT:     -11.6      3.243      9.695
REMARK  Name = dock_mp/CHEMBL2/CHEMBL261674.pdb
REMARK  8 active torsions:
REMARK  status: ('A' for Active; 'I' for Inactive)
REMARK    1  A    between atoms: C1_1  and  N1_2
REMARK    2  A    between atoms: N2_5  and  C4_6
REMARK    3  A    between atoms: C4_6  and  C5_7
REMARK    4  A    between atoms: C5_7  and  C6_8
REMARK    5  A    between atoms: C6_8  and  O1_9
REMARK    6  A    between atoms: O1_9  and  C7_10
REMARK    7  A    between atoms: C11_14  and  C12_15
REMARK    8  A    between atoms: C17_22  and  C18_23
REMARK                            x       y       z     vdW  Elec       q    Type
REMARK                         _______ _______ _______ _____ _____    ______ ____
ROOT
ATOM      1  C7  CHE B   06     19.620  68.627   2.140  0.00  0.00    +0.123 A 
ATOM      2  C8  CHE B   06     19.495  68.025   8.173  0.00  0.00    +0.046 A 
ATOM      3  C9  CHE B   06     21.019  69.631   4.582  0.00  0.00    +0.014 A 
ATOM      4  C10 CHE B   06     21.232  69.726   5.657  0.00  0.00    +0.008 A 
ATOM      5  C11 CHE B   06     21.712  69.796   9.848  0.00  0.00    -0.003 A 
ATOM      6  C23 CHE B   06     22.049  70.077   9.949  0.00  0.00    +0.029 A 
ATOM      7  C24 CHE B   06     21.883  70.270   5.852  0.00  0.00    +0.112 A 
ATOM      8  N6  CHE B   06     21.179  69.848   3.618  0.00  0.00    -0.255 NA
ATOM      9  C25 CHE B   06     21.097  69.944   1.570  0.00  0.00    +0.075 A 
ATOM     10  C26 CHE B   06     19.203  67.781   8.085  0.00  0.00    +0.074 A 
ENDROOT
BRANCH   5  11
ATOM     11  C12 CHE B   06     22.445  70.409  10.067  0.00  0.00    +0.033 A 
ATOM     12  C13 CHE B   06     24.258  69.541   9.428  0.00  0.00    +0.048 A 
ATOM     13  C14 CHE B   06     23.707  70.272   9.854  0.00  0.00    +0.057 C 
ATOM     14  C15 CHE B   06     27.989  67.892   8.181  0.00  0.00    +0.029 C 
ATOM     15  C16 CHE B   06     25.409  70.503   9.773  0.00  0.00    +0.144 C 
ATOM     16  N3  CHE B   06     23.544  71.328  10.396  0.00  0.00    -0.267 N 
ATOM     17  N4  CHE B   06     24.095  70.597   9.970  0.00  0.00    -0.169 NA
ATOM     18  C17 CHE B   06     27.351  66.167   7.400  0.00  0.00    +0.119 A 
BRANCH  18  19
ATOM     19  C18 CHE B   06     22.430  70.396  10.063  0.00  0.00    +0.091 A 
ATOM     20  C19 CHE B   06     23.289  69.899   9.767  0.00  0.00    +0.030 A 
ATOM     21  C20 CHE B   06     21.691  70.976  10.424  0.00  0.00    +0.004 A 
ATOM     22  C21 CHE B   06     27.088  64.901   6.497  0.00  0.00    +0.020 A 
ATOM     23  C22 CHE B   06     26.884  64.761   6.387  0.00  0.00    +0.111 A 
ATOM     24  N5  CHE B   06     23.907  68.151   8.580  0.00  0.00    -0.253 NA
ENDBRANCH  18  19
ENDBRANCH   5  11
BRANCH   1  25
ATOM     25  O1  CHE B   06     18.480  67.591   2.810  0.00  0.00    -0.492 OA
BRANCH  25  26
ATOM     26  C6  CHE B   06     17.807  68.270   2.231  0.00  0.00    +0.227 C 
BRANCH  26  27
ATOM     27  C5  CHE B   06     16.202  69.030   1.975  0.00  0.00    +0.022 C 
BRANCH  27  28
ATOM     28  C4  CHE B   06     15.853  69.111   2.130  0.00  0.00    -0.076 C 
BRANCH  28  33
ATOM     29  C1  CHE B   06     14.138  65.050   5.207  0.00  0.00    -0.096 C 
ATOM     30  N1  CHE B   06     15.371  66.584   9.873  0.00  0.00    +0.375 N 
ATOM     31  C2  CHE B   06     15.118  66.693   6.807  0.00  0.00    -0.098 C 
ATOM     32  C3  CHE B   06     15.553  67.830   5.500  0.00  0.00    -0.098 C 
ATOM     33  N2  CHE B   06     15.975  68.507   6.337  0.00  0.00    +0.377 N 
ATOM     34  C27 CHE B   06     15.160  67.428   3.579  0.00  0.00    -0.098 C 
ATOM     35  C28 CHE B   06     15.603  67.290   8.677  0.00  0.00    -0.098 C 
ATOM     36  H4  CHE B   06     14.565  65.523   7.110  0.00  0.00    -0.082 HD
ATOM     37  H9  CHE B   06     16.256  68.672   8.319  0.00  0.00    -0.082 HD
ENDBRANCH  28  33
ENDBRANCH  27  28
ENDBRANCH  26  27
ENDBRANCH  25  26
ENDBRANCH   1  25
TORSDOF 7
ENDMDL
MODEL 4
REMARK VINA RESULT:     -11.5      2.852      4.083
REMARK  Name = dock_mp/CHEMBL2/CHEMBL261674.pdb
REMARK  8 active torsions:
REMARK  status: ('A' for Active; 'I' for Inactive)
REMARK    1  A    between atoms: C1_1  and  N1_2
REMARK    2  A    between atoms: N2_5  and  C4_6
REMARK    3  A    between atoms: C4_6  and  C5_7
REMARK    4  A    between atoms: C5_7  and  C6_8
REMARK    5  A    between atoms: C6_8  and  O1_9
REMARK    6  A    between atoms: O1_9  and  C7_10
REMARK    7  A    between atoms: C11_14  and  C12_15
REMARK    8  A    between atoms: C17_22  and  C18_23
REMARK                            x       y       z     vdW  Elec       q    Type
REMARK                         _______ _______ _______ _____ _____    ______ ____
ROOT
ATOM      1  C7  CHE B   06     24.118  68.325  10.646  0.00  0.00    +0.123 A 
ATOM      2  C8  CHE B   06     21.443  70.267   5.563  0.00  0.00    +0.046 A 
ATOM      3  C9  CHE B   06     21.725  67.765   8.948  0.00  0.00    +0.014 A 
ATOM      4  C10 CHE B   06     21.035  67.893   8.100  0.00  0.00    +0.008 A 
ATOM      5  C11 CHE B   06     18.664  68.715   4.709  0.00  0.00    -0.003 A 
ATOM      6  C23 CHE B   06     18.313  68.433   4.708  0.00  0.00    +0.029 A 
ATOM      7  C24 CHE B   06     20.357  67.348   8.098  0.00  0.00    +0.112 A 
ATOM      8  N6  CHE B   06     22.025  67.325   9.795  0.00  0.00    -0.255 NA
ATOM      9  C25 CHE B   06     23.047  66.782  11.490  0.00  0.00    +0.075 A 
ATOM     10  C26 CHE B   06     21.747  70.511   5.563  0.00  0.00    +0.074 A 
ENDROOT
BRANCH   5  11
ATOM     11  C12 CHE B   06     17.900  68.101   4.706  0.00  0.00    +0.033 A 
ATOM     12  C13 CHE B   06     17.399  67.649   6.705  0.00  0.00    +0.048 A 
ATOM     13  C14 CHE B   06     17.279  67.577   5.705  0.00  0.00    +0.057 C 
ATOM     14  C15 CHE B   06     16.287  66.656  10.701  0.00  0.00    +0.029 C 
ATOM     15  C16 CHE B   06     16.198  66.684   6.701  0.00  0.00    +0.144 C 
ATOM     16  N3  CHE B   06     16.754  67.180   4.703  0.00  0.00    -0.267 N 
ATOM     17  N4  CHE B   06     16.874  67.252   5.703  0.00  0.00    -0.169 NA
ATOM     18  C17 CHE B   06     17.646  67.723  11.704  0.00  0.00    +0.119 A 
BRANCH  18  19
ATOM     19  C18 CHE B   06     17.916  68.114   4.707  0.00  0.00    +0.091 A 
ATOM     20  C19 CHE B   06     17.864  67.851   5.707  0.00  0.00    +0.030 A 
ATOM     21  C20 CHE B   06     17.957  68.217   3.707  0.00  0.00    +0.004 A 
ATOM     22  C21 CHE B   06     17.688  68.948  12.698  0.00  0.00    +0.020 A 
ATOM     23  C22 CHE B   06     17.704  69.217  12.697  0.00  0.00    +0.111 A 
ATOM     24  N5  CHE B   06     17.853  68.783   7.702  0.00  0.00    -0.253 NA
ENDBRANCH  18  19
ENDBRANCH   5  11
BRANCH   1  25
ATOM     25  O1  CHE B   06     24.839  69.586   9.802  0.00  0.00    -0.492 OA
BRANCH  25  26
ATOM     26  C6  CHE B   06     24.945  68.765   9.051  0.00  0.00    +0.227 C 
BRANCH  26  27
ATOM     27  C5  CHE B   06     25.960  67.789   7.939  0.00  0.00    +0.022 C 
BRANCH  27  28
ATOM     28  C4  CHE B   06     25.971  67.488   7.690  0.00  0.00    -0.076 C 
BRANCH  28  33
ATOM     29  C1  CHE B   06     28.651  63.352   5.544  0.00  0.00    -0.096 C 
ATOM     30  N1  CHE B   06     30.222  60.799   9.625  0.00  0.00    +0.375 N 
ATOM     31  C2  CHE B   06     28.827  63.017   8.009  0.00  0.00    -0.098 C 
ATOM     32  C3  CHE B   06     27.880  64.490   8.360  0.00  0.00    -0.098 C 
ATOM     33  N2  CHE B   06     28.032  64.226   9.475  0.00  0.00    +0.377 N 
ATOM     34  C27 CHE B   06     27.158  65.652   6.898  0.00  0.00    -0.098 C 
ATOM     35  C28 CHE B   06     29.464  61.984   9.627  0.00  0.00    -0.098 C 
ATOM     36  H4  CHE B   06     29.341  62.237   7.062  0.00  0.00    -0.082 HD
ATOM     37  H9  CHE B   06     28.857  62.906  10.745  0.00  0.00    -0.082 HD
ENDBRANCH  28  33
ENDBRANCH  27  28
ENDBRANCH  26  27
ENDBRANCH  25  26
ENDBRANCH   1  25
TORSDOF 7
ENDMDL
MODEL 5
REMARK VINA RESULT:     -11.2      3.893      6.433
REMARK  Name = dock_mp/CHEMBL2/CHEMBL261674.pdb
REMARK  8 active torsions:
REMARK  status: ('A' for Active; 'I' for Inactive)
REMARK    1  A    between atoms: C1_1  and  N1_2
REMARK    2  A    between atoms: N2_5  and  C4_6
REMARK    3  A    between atoms: C4_6  and  C5_7
REMARK    4  A    between atoms: C5_7  and  C6_8
REMARK    5  A    between atoms: C6_8  and  O1_9
REMARK    6  A    between atoms: O1_9  and  C7_10
REMARK    7  A    between atoms: C11_14  and  C12_15
REMARK    8  A    between atoms: C17_22  and  C18_23
REMARK                            x       y       z     vdW  Elec       q    Type
REMARK                         _______ _______ _______ _____ _____    ______ ____
ROOT
ATOM      1  C7  CHE B   06     27.378  67.596   9.413  0.00  0.00    +0.123 A 
ATOM      2  C8  CHE B   06     22.448  70.911  10.630  0.00  0.00    +0.046 A 
ATOM      3  C9  CHE B   06     24.622  67.298  10.530  0.00  0.00    +0.014 A 
ATOM      4  C10 CHE B   06     23.620  67.622  10.848  0.00  0.00    +0.008 A 
ATOM      5  C11 CHE B   06     19.898  69.283  11.937  0.00  0.00    -0.003 A 
ATOM      6  C23 CHE B   06     19.639  68.956  12.103  0.00  0.00    +0.029 A 
ATOM      7  C24 CHE B   06     23.118  66.988  11.169  0.00  0.00    +0.112 A 
ATOM      8  N6  CHE B   06     25.336  66.609  10.396  0.00  0.00    -0.255 NA
ATOM      9  C25 CHE B   06     27.076  65.625   9.929  0.00  0.00    +0.075 A 
ATOM     10  C26 CHE B   06     22.673  71.195  10.486  0.00  0.00    +0.074 A 
ENDROOT
BRANCH   5  11
ATOM     11  C12 CHE B   06     19.333  68.569  12.298  0.00  0.00    +0.033 A 
ATOM     12  C13 CHE B   06     18.000  67.941  10.789  0.00  0.00    +0.048 A 
ATOM     13  C14 CHE B   06     18.392  67.909  11.719  0.00  0.00    +0.057 C 
ATOM     14  C15 CHE B   06     15.254  66.583   7.822  0.00  0.00    +0.029 C 
ATOM     15  C16 CHE B   06     17.111  66.819  11.357  0.00  0.00    +0.144 C 
ATOM     16  N3  CHE B   06     18.484  67.499  12.841  0.00  0.00    -0.267 N 
ATOM     17  N4  CHE B   06     18.092  67.531  11.911  0.00  0.00    -0.169 NA
ATOM     18  C17 CHE B   06     15.780  67.773   6.305  0.00  0.00    +0.119 A 
BRANCH  18  19
ATOM     19  C18 CHE B   06     19.344  68.584  12.291  0.00  0.00    +0.091 A 
ATOM     20  C19 CHE B   06     18.666  68.396  11.531  0.00  0.00    +0.030 A 
ATOM     21  C20 CHE B   06     19.892  68.716  13.125  0.00  0.00    +0.004 A 
ATOM     22  C21 CHE B   06     16.318  68.104   4.860  0.00  0.00    +0.020 A 
ATOM     23  C22 CHE B   06     16.539  68.198   4.736  0.00  0.00    +0.111 A 
ATOM     24  N5  CHE B   06     18.501  68.529   9.340  0.00  0.00    -0.253 NA
ENDBRANCH  18  19
ENDBRANCH   5  11
BRANCH   1  25
ATOM     25  O1  CHE B   06     27.420  69.239   9.064  0.00  0.00    -0.492 OA
BRANCH  25  26
ATOM     26  C6  CHE B   06     27.406  69.279  10.181  0.00  0.00    +0.227 C 
BRANCH  26  27
ATOM     27  C5  CHE B   06     26.786  69.986  11.709  0.00  0.00    +0.022 C 
BRANCH  27  28
ATOM     28  C4  CHE B   06     26.829  70.266  11.977  0.00  0.00    -0.076 C 
BRANCH  28  33
ATOM     29  C1  CHE B   06     29.769  74.223  14.120  0.00  0.00    -0.096 C 
ATOM     30  N1  CHE B   06     30.887  77.088  10.098  0.00  0.00    +0.375 N 
ATOM     31  C2  CHE B   06     29.667  74.750  11.685  0.00  0.00    -0.098 C 
ATOM     32  C3  CHE B   06     28.674  73.308  11.330  0.00  0.00    -0.098 C 
ATOM     33  N2  CHE B   06     28.700  73.659  10.229  0.00  0.00    +0.377 N 
ATOM     34  C27 CHE B   06     28.114  72.035  12.770  0.00  0.00    -0.098 C 
ATOM     35  C28 CHE B   06     30.124  75.907  10.090  0.00  0.00    -0.098 C 
ATOM     36  H4  CHE B   06     30.292  75.454  12.625  0.00  0.00    -0.082 HD
ATOM     37  H9  CHE B   06     29.387  75.075   8.981  0.00  0.00    -0.082 HD
ENDBRANCH  28  33
ENDBRANCH  27  28
ENDBRANCH  26  27
ENDBRANCH  25  26
ENDBRANCH   1  25
TORSDOF 7
ENDMDL
MODEL 6
REMARK VINA RESULT:     -11.1      3.032      5.499
REMARK  Name = dock_mp/CHEMBL2/CHEMBL261674.pdb
REMARK  8 active torsions:
REMARK  status: ('A' for Active; 'I' for Inactive)
REMARK    1  A    between atoms: C1_1  and  N1_2
REMARK    2  A    between atoms: N2_5  and  C4_6
REMARK    3  A    between atoms: C4_6  and  C5_7
REMARK    4  A    between atoms: C5_7  and  C6_8
REMARK    5  A    between atoms: C6_8  and  O1_9
REMARK    6  A    between atoms: O1_9  and  C7_10
REMARK    7  A    between atoms: C11_14  and  C12_15
REMARK    8  A    between atoms: C17_22  and  C18_23
REMARK                            x       y       z     vdW  Elec       q    Type
REMARK                         _______ _______ _______ _____ _____    ______ ____
ROOT
ATOM      1  C7  CHE B   06     29.327  65.923   5.629  0.00  0.00    +0.123 A 
ATOM      2  C8  CHE B   06     24.703  69.645   4.388  0.00  0.00    +0.046 A 
ATOM      3  C9  CHE B   06     26.881  67.061   6.913  0.00  0.00    +0.014 A 
ATOM      4  C10 CHE B   06     25.963  67.665   6.982  0.00  0.00    +0.008 A 
ATOM      5  C11 CHE B   06     22.527  70.106   6.819  0.00  0.00    -0.003 A 
ATOM      6  C23 CHE B   06     22.315  70.082   7.215  0.00  0.00    +0.029 A 
ATOM      7  C24 CHE B   06     25.555  67.618   7.749  0.00  0.00    +0.112 A 
ATOM      8  N6  CHE B   06     27.564  66.431   7.284  0.00  0.00    -0.255 NA
ATOM      9  C25 CHE B   06     29.184  65.199   7.551  0.00  0.00    +0.075 A 
ATOM     10  C26 CHE B   06     24.886  69.665   4.044  0.00  0.00    +0.074 A 
ENDROOT
BRANCH   5  11
ATOM     11  C12 CHE B   06     22.066  70.054   7.682  0.00  0.00    +0.033 A 
ATOM     12  C13 CHE B   06     20.137  69.261   7.366  0.00  0.00    +0.048 A 
ATOM     13  C14 CHE B   06     20.879  69.632   7.943  0.00  0.00    +0.057 C 
ATOM     14  C15 CHE B   06     16.213  67.669   6.858  0.00  0.00    +0.029 C 
ATOM     15  C16 CHE B   06     19.414  69.179   8.724  0.00  0.00    +0.144 C 
ATOM     16  N3  CHE B   06     21.376  69.975   8.978  0.00  0.00    -0.267 N 
ATOM     17  N4  CHE B   06     20.635  69.604   8.401  0.00  0.00    -0.169 NA
ATOM     18  C17 CHE B   06     16.219  67.383   4.881  0.00  0.00    +0.119 A 
BRANCH  18  19
ATOM     19  C18 CHE B   06     22.076  70.055   7.665  0.00  0.00    +0.091 A 
ATOM     20  C19 CHE B   06     21.205  69.547   7.428  0.00  0.00    +0.030 A 
ATOM     21  C20 CHE B   06     22.920  70.465   8.026  0.00  0.00    +0.004 A 
ATOM     22  C21 CHE B   06     15.596  67.781   3.487  0.00  0.00    +0.020 A 
ATOM     23  C22 CHE B   06     15.641  67.945   3.278  0.00  0.00    +0.111 A 
ATOM     24  N5  CHE B   06     19.705  69.419   5.821  0.00  0.00    -0.253 NA
ENDBRANCH  18  19
ENDBRANCH   5  11
BRANCH   1  25
ATOM     25  O1  CHE B   06     29.260  66.623   4.103  0.00  0.00    -0.492 OA
BRANCH  25  26
ATOM     26  C6  CHE B   06     29.284  67.543   4.737  0.00  0.00    +0.227 C 
BRANCH  26  27
ATOM     27  C5  CHE B   06     28.987  69.300   4.951  0.00  0.00    +0.022 C 
BRANCH  27  28
ATOM     28  C4  CHE B   06     29.093  69.626   5.136  0.00  0.00    -0.076 C 
BRANCH  28  33
ATOM     29  C1  CHE B   06     28.531  74.683   6.873  0.00  0.00    -0.096 C 
ATOM     30  N1  CHE B   06     25.608  76.772   3.304  0.00  0.00    +0.375 N 
ATOM     31  C2  CHE B   06     27.228  74.588   4.748  0.00  0.00    -0.098 C 
ATOM     32  C3  CHE B   06     27.625  72.867   4.485  0.00  0.00    -0.098 C 
ATOM     33  N2  CHE B   06     26.992  72.951   3.521  0.00  0.00    +0.377 N 
ATOM     34  C27 CHE B   06     28.767  71.841   5.769  0.00  0.00    -0.098 C 
ATOM     35  C28 CHE B   06     26.061  75.440   3.333  0.00  0.00    -0.098 C 
ATOM     36  H4  CHE B   06     27.380  75.646   5.541  0.00  0.00    -0.082 HD
ATOM     37  H9  CHE B   06     25.881  74.192   2.398  0.00  0.00    -0.082 HD
ENDBRANCH  28  33
ENDBRANCH  27  28
ENDBRANCH  26  27
ENDBRANCH  25  26
ENDBRANCH   1  25
TORSDOF 7
ENDMDL
MODEL 7
REMARK VINA RESULT:     -11.0      3.424      6.423
REMARK  Name = dock_mp/CHEMBL2/CHEMBL261674.pdb
REMARK  8 active torsions:
REMARK  status: ('A' for Active; 'I' for Inactive)
REMARK    1  A    between atoms: C1_1  and  N1_2
REMARK    2  A    between atoms: N2_5  and  C4_6
REMARK    3  A    between atoms: C4_6  and  C5_7
REMARK    4  A    between atoms: C5_7  and  C6_8
REMARK    5  A    between atoms: C6_8  and  O1_9
REMARK    6  A    between atoms: O1_9  and  C7_10
REMARK    7  A    between atoms: C11_14  and  C12_15
REMARK    8  A    between atoms: C17_22  and  C18_23
REMARK                            x       y       z     vdW  Elec       q    Type
REMARK                         _______ _______ _______ _____ _____    ______ ____
ROOT
ATOM      1  C7  CHE B   06     28.795  65.336   7.448  0.00  0.00    +0.123 A 
ATOM      2  C8  CHE B   06     26.945  70.827   9.238  0.00  0.00    +0.046 A 
ATOM      3  C9  CHE B   06     26.345  66.727   8.444  0.00  0.00    +0.014 A 
ATOM      4  C10 CHE B   06     25.739  67.571   8.807  0.00  0.00    +0.008 A 
ATOM      5  C11 CHE B   06     23.788  71.060  10.156  0.00  0.00    -0.003 A 
ATOM      6  C23 CHE B   06     23.360  70.957  10.249  0.00  0.00    +0.029 A 
ATOM      7  C24 CHE B   06     24.911  67.373   8.987  0.00  0.00    +0.112 A 
ATOM      8  N6  CHE B   06     26.476  65.769   8.184  0.00  0.00    -0.255 NA
ATOM      9  C25 CHE B   06     27.251  63.977   7.553  0.00  0.00    +0.075 A 
ATOM     10  C26 CHE B   06     27.316  70.916   9.157  0.00  0.00    +0.074 A 
ENDROOT
BRANCH   5  11
ATOM     11  C12 CHE B   06     22.856  70.836  10.359  0.00  0.00    +0.033 A 
ATOM     12  C13 CHE B   06     21.896  70.275   8.567  0.00  0.00    +0.048 A 
ATOM     13  C14 CHE B   06     21.924  70.447   9.561  0.00  0.00    +0.057 C 
ATOM     14  C15 CHE B   06     19.843  69.119   5.012  0.00  0.00    +0.029 C 
ATOM     15  C16 CHE B   06     20.431  69.924   8.886  0.00  0.00    +0.144 C 
ATOM     16  N3  CHE B   06     21.457  70.501  10.664  0.00  0.00    -0.267 N 
ATOM     17  N4  CHE B   06     21.429  70.329   9.669  0.00  0.00    -0.169 NA
ATOM     18  C17 CHE B   06     21.328  69.309   3.688  0.00  0.00    +0.119 A 
BRANCH  18  19
ATOM     19  C18 CHE B   06     22.875  70.841  10.355  0.00  0.00    +0.091 A 
ATOM     20  C19 CHE B   06     22.462  70.557   9.448  0.00  0.00    +0.030 A 
ATOM     21  C20 CHE B   06     23.140  71.075  11.297  0.00  0.00    +0.004 A 
ATOM     22  C21 CHE B   06     22.292  69.490   2.453  0.00  0.00    +0.020 A 
ATOM     23  C22 CHE B   06     22.542  69.574   2.393  0.00  0.00    +0.111 A 
ATOM     24  N5  CHE B   06     22.987  70.446   7.313  0.00  0.00    -0.253 NA
ENDBRANCH  18  19
ENDBRANCH   5  11
BRANCH   1  25
ATOM     25  O1  CHE B   06     29.911  66.592   7.436  0.00  0.00    -0.492 OA
BRANCH  25  26
ATOM     26  C6  CHE B   06     29.496  66.692   6.403  0.00  0.00    +0.227 C 
BRANCH  26  27
ATOM     27  C5  CHE B   06     29.736  66.948   4.643  0.00  0.00    +0.022 C 
BRANCH  27  28
ATOM     28  C4  CHE B   06     29.567  66.962   4.292  0.00  0.00    -0.076 C 
BRANCH  28  33
ATOM     29  C1  CHE B   06     25.916  68.646   0.723  0.00  0.00    -0.096 C 
ATOM     30  N1  CHE B   06     25.184  73.473   2.066  0.00  0.00    +0.375 N 
ATOM     31  C2  CHE B   06     26.363  70.631   2.165  0.00  0.00    -0.098 C 
ATOM     32  C3  CHE B   06     27.547  69.742   3.164  0.00  0.00    -0.098 C 
ATOM     33  N2  CHE B   06     27.666  70.727   3.758  0.00  0.00    +0.377 N 
ATOM     34  C27 CHE B   06     27.992  67.822   2.813  0.00  0.00    -0.098 C 
ATOM     35  C28 CHE B   06     26.058  72.561   2.687  0.00  0.00    -0.098 C 
ATOM     36  H4  CHE B   06     25.522  70.569   1.136  0.00  0.00    -0.082 HD
ATOM     37  H9  CHE B   06     27.050  72.634   3.901  0.00  0.00    -0.082 HD
ENDBRANCH  28  33
ENDBRANCH  27  28
ENDBRANCH  26  27
ENDBRANCH  25  26
ENDBRANCH   1  25
TORSDOF 7
ENDMDL
MODEL 8
REMARK VINA RESULT:     -11.0      2.541      5.270
REMARK  Name = dock_mp/CHEMBL2/CHEMBL261674.pdb
REMARK  8 active torsions:
REMARK  status: ('A' for Active; 'I' for Inactive)
REMARK    1  A    between atoms: C1_1  and  N1_2
REMARK    2  A    between atoms: N2_5  and  C4_6
REMARK    3  A    between atoms: C4_6  and  C5_7
REMARK    4  A    between atoms: C5_7  and  C6_8
REMARK    5  A    between atoms: C6_8  and  O1_9
REMARK    6  A    between atoms: O1_9  and  C7_10
REMARK    7  A    between atoms: C11_14  and  C12_15
REMARK    8  A    between atoms: C17_22  and  C18_23
REMARK                            x       y       z     vdW  Elec       q    Type
REMARK                         _______ _______ _______ _____ _____    ______ ____
ROOT
ATOM      1  C7  CHE B   06     28.454  65.929   9.596  0.00  0.00    +0.123 A 
ATOM      2  C8  CHE B   06     24.147  70.193   9.405  0.00  0.00    +0.046 A 
ATOM      3  C9  CHE B   06     25.666  66.428  10.548  0.00  0.00    +0.014 A 
ATOM      4  C10 CHE B   06     24.728  66.988  10.681  0.00  0.00    +0.008 A 
ATOM      5  C11 CHE B   06     21.328  69.471  10.951  0.00  0.00    -0.003 A 
ATOM      6  C23 CHE B   06     21.012  69.255  11.188  0.00  0.00    +0.029 A 
ATOM      7  C24 CHE B   06     24.117  66.572  11.140  0.00  0.00    +0.112 A 
ATOM      8  N6  CHE B   06     26.252  65.628  10.678  0.00  0.00    -0.255 NA
ATOM      9  C25 CHE B   06     27.805  64.286  10.654  0.00  0.00    +0.075 A 
ATOM     10  C26 CHE B   06     24.420  70.380   9.199  0.00  0.00    +0.074 A 
ENDROOT
BRANCH   5  11
ATOM     11  C12 CHE B   06     20.640  69.002  11.468  0.00  0.00    +0.033 A 
ATOM     12  C13 CHE B   06     19.138  68.342  10.141  0.00  0.00    +0.048 A 
ATOM     13  C14 CHE B   06     19.556  68.445  11.055  0.00  0.00    +0.057 C 
ATOM     14  C15 CHE B   06     16.038  66.957   7.561  0.00  0.00    +0.029 C 
ATOM     15  C16 CHE B   06     18.058  67.605  10.953  0.00  0.00    +0.144 C 
ATOM     16  N3  CHE B   06     19.608  68.298  12.243  0.00  0.00    -0.267 N 
ATOM     17  N4  CHE B   06     19.191  68.196  11.329  0.00  0.00    -0.169 NA
ATOM     18  C17 CHE B   06     16.736  67.616   5.809  0.00  0.00    +0.119 A 
BRANCH  18  19
ATOM     19  C18 CHE B   06     20.654  69.011  11.457  0.00  0.00    +0.091 A 
ATOM     20  C19 CHE B   06     19.935  68.741  10.762  0.00  0.00    +0.030 A 
ATOM     21  C20 CHE B   06     21.250  69.227  12.239  0.00  0.00    +0.004 A 
ATOM     22  C21 CHE B   06     17.163  67.855   4.309  0.00  0.00    +0.020 A 
ATOM     23  C22 CHE B   06     17.371  67.947   4.164  0.00  0.00    +0.111 A 
ATOM     24  N5  CHE B   06     19.620  68.700   8.584  0.00  0.00    -0.253 NA
ENDBRANCH  18  19
ENDBRANCH   5  11
BRANCH   1  25
ATOM     25  O1  CHE B   06     28.786  67.356   8.775  0.00  0.00    -0.492 OA
BRANCH  25  26
ATOM     26  C6  CHE B   06     28.412  66.729   7.929  0.00  0.00    +0.227 C 
BRANCH  26  27
ATOM     27  C5  CHE B   06     27.961  66.547   6.201  0.00  0.00    +0.022 C 
BRANCH  27  28
ATOM     28  C4  CHE B   06     27.684  66.599   5.932  0.00  0.00    -0.076 C 
BRANCH  28  33
ATOM     29  C1  CHE B   06     25.125  69.163   1.960  0.00  0.00    -0.096 C 
ATOM     30  N1  CHE B   06     26.176  74.025   2.908  0.00  0.00    +0.375 N 
ATOM     31  C2  CHE B   06     26.202  70.971   3.298  0.00  0.00    -0.098 C 
ATOM     32  C3  CHE B   06     26.912  69.808   4.452  0.00  0.00    -0.098 C 
ATOM     33  N2  CHE B   06     27.358  70.731   4.986  0.00  0.00    +0.377 N 
ATOM     34  C27 CHE B   06     26.626  67.835   4.269  0.00  0.00    -0.098 C 
ATOM     35  C28 CHE B   06     26.611  72.918   3.661  0.00  0.00    -0.098 C 
ATOM     36  H4  CHE B   06     25.455  71.126   2.208  0.00  0.00    -0.082 HD
ATOM     37  H9  CHE B   06     27.492  72.735   4.947  0.00  0.00    -0.082 HD
ENDBRANCH  28  33
ENDBRANCH  27  28
ENDBRANCH  26  27
ENDBRANCH  25  26
ENDBRANCH   1  25
TORSDOF 7
ENDMDL
MODEL 9
REMARK VINA RESULT:     -10.9      2.319      4.998
REMARK  Name = dock_mp/CHEMBL2/CHEMBL261674.pdb
REMARK  8 active torsions:
REMARK  status: ('A' for Active; 'I' for Inactive)
REMARK    1  A    between atoms: C1_1  and  N1_2
REMARK    2  A    between atoms: N2_5  and  C4_6
REMARK    3  A    between atoms: C4_6  and  C5_7
REMARK    4  A    between atoms: C5_7  and  C6_8
REMARK    5  A    between atoms: C6_8  and  O1_9
REMARK    6  A    between atoms: O1_9  and  C7_10
REMARK    7  A    between atoms: C11_14  and  C12_15
REMARK    8  A    between atoms: C17_22  and  C18_23
REMARK                            x       y       z     vdW  Elec       q    Type
REMARK                         _______ _______ _______ _____ _____    ______ ____
ROOT
ATOM      1  C7  CHE B   06     27.222  67.857  11.192  0.00  0.00    +0.123 A 
ATOM      2  C8  CHE B   06     21.934  70.772  10.628  0.00  0.00    +0.046 A 
ATOM      3  C9  CHE B   06     24.296  67.415  11.602  0.00  0.00    +0.014 A 
ATOM      4  C10 CHE B   06     23.225  67.671  11.606  0.00  0.00    +0.008 A 
ATOM      5  C11 CHE B   06     19.245  69.060  11.464  0.00  0.00    -0.003 A 
ATOM      6  C23 CHE B   06     18.973  68.730  11.604  0.00  0.00    +0.029 A 
ATOM      7  C24 CHE B   06     22.700  67.032  11.876  0.00  0.00    +0.112 A 
ATOM      8  N6  CHE B   06     25.064  66.792  11.754  0.00  0.00    -0.255 NA
ATOM      9  C25 CHE B   06     26.928  65.943  11.890  0.00  0.00    +0.075 A 
ATOM     10  C26 CHE B   06     22.170  71.058  10.507  0.00  0.00    +0.074 A 
ENDROOT
BRANCH   5  11
ATOM     11  C12 CHE B   06     18.653  68.341  11.769  0.00  0.00    +0.033 A 
ATOM     12  C13 CHE B   06     17.461  67.721  10.143  0.00  0.00    +0.048 A 
ATOM     13  C14 CHE B   06     17.770  67.682  11.103  0.00  0.00    +0.057 C 
ATOM     14  C15 CHE B   06     14.993  66.377   6.935  0.00  0.00    +0.029 C 
ATOM     15  C16 CHE B   06     16.531  66.590  10.621  0.00  0.00    +0.144 C 
ATOM     16  N3  CHE B   06     17.765  67.262  12.226  0.00  0.00    -0.267 N 
ATOM     17  N4  CHE B   06     17.456  67.301  11.265  0.00  0.00    -0.169 NA
ATOM     18  C17 CHE B   06     15.644  67.582   5.480  0.00  0.00    +0.119 A 
BRANCH  18  19
ATOM     19  C18 CHE B   06     18.665  68.356  11.762  0.00  0.00    +0.091 A 
ATOM     20  C19 CHE B   06     18.056  68.174  10.945  0.00  0.00    +0.030 A 
ATOM     21  C20 CHE B   06     19.137  68.482  12.642  0.00  0.00    +0.004 A 
ATOM     22  C21 CHE B   06     16.312  67.912   4.090  0.00  0.00    +0.020 A 
ATOM     23  C22 CHE B   06     16.543  68.005   3.986  0.00  0.00    +0.111 A 
ATOM     24  N5  CHE B   06     18.089  68.312   8.748  0.00  0.00    -0.253 NA
ENDBRANCH  18  19
ENDBRANCH   5  11
BRANCH   1  25
ATOM     25  O1  CHE B   06     27.245  69.442  10.633  0.00  0.00    -0.492 OA
BRANCH  25  26
ATOM     26  C6  CHE B   06     27.209  68.893   9.659  0.00  0.00    +0.227 C 
BRANCH  26  27
ATOM     27  C5  CHE B   06     27.240  68.895   7.865  0.00  0.00    +0.022 C 
BRANCH  27  28
ATOM     28  C4  CHE B   06     27.359  68.710   7.543  0.00  0.00    -0.076 C 
BRANCH  28  33
ATOM     29  C1  CHE B   06     24.336  69.235   3.129  0.00  0.00    -0.096 C 
ATOM     30  N1  CHE B   06     26.480  73.168   0.768  0.00  0.00    +0.375 N 
ATOM     31  C2  CHE B   06     26.048  71.039   2.949  0.00  0.00    -0.098 C 
ATOM     32  C3  CHE B   06     26.818  70.576   4.493  0.00  0.00    -0.098 C 
ATOM     33  N2  CHE B   06     27.554  71.446   4.295  0.00  0.00    +0.377 N 
ATOM     34  C27 CHE B   06     26.136  69.050   5.594  0.00  0.00    -0.098 C 
ATOM     35  C28 CHE B   06     26.891  72.609   1.991  0.00  0.00    -0.098 C 
ATOM     36  H4  CHE B   06     25.076  70.777   2.080  0.00  0.00    -0.082 HD
ATOM     37  H9  CHE B   06     28.039  72.918   3.017  0.00  0.00    -0.082 HD
ENDBRANCH  28  33
ENDBRANCH  27  28
ENDBRANCH  26  27
ENDBRANCH  25  26
ENDBRANCH   1  25
TORSDOF 7
ENDMDL
MODEL 10
REMARK VINA RESULT:     -10.9      3.573     10.022
REMARK  Name = dock_mp/CHEMBL2/CHEMBL261674.pdb
REMARK  8 active torsions:
REMARK  status: ('A' for Active; 'I' for Inactive)
REMARK    1  A    between atoms: C1_1  and  N1_2
REMARK    2  A    between atoms: N2_5  and  C4_6
REMARK    3  A    between atoms: C4_6  and  C5_7
REMARK    4  A    between atoms: C5_7  and  C6_8
REMARK    5  A    between atoms: C6_8  and  O1_9
REMARK    6  A    between atoms: O1_9  and  C7_10
REMARK    7  A    between atoms: C11_14  and  C12_15
REMARK    8  A    between atoms: C17_22  and  C18_23
REMARK                            x       y       z     vdW  Elec       q    Type
REMARK                         _______ _______ _______ _____ _____    ______ ____
ROOT
ATOM      1  C7  CHE B   06     19.831  69.501   5.986  0.00  0.00    +0.123 A 
ATOM      2  C8  CHE B   06     25.686  69.120   4.455  0.00  0.00    +0.046 A 
ATOM      3  C9  CHE B   06     21.586  69.577   3.570  0.00  0.00    +0.014 A 
ATOM      4  C10 CHE B   06     22.531  69.546   3.004  0.00  0.00    +0.008 A 
ATOM      5  C11 CHE B   06     26.357  69.371   1.238  0.00  0.00    -0.003 A 
ATOM      6  C23 CHE B   06     26.312  69.419   0.793  0.00  0.00    +0.029 A 
ATOM      7  C24 CHE B   06     22.442  69.637   2.144  0.00  0.00    +0.112 A 
ATOM      8  N6  CHE B   06     20.592  69.660   3.640  0.00  0.00    -0.255 NA
ATOM      9  C25 CHE B   06     18.657  69.769   4.316  0.00  0.00    +0.075 A 
ATOM     10  C26 CHE B   06     25.725  69.079   4.840  0.00  0.00    +0.074 A 
ENDROOT
BRANCH   5  11
ATOM     11  C12 CHE B   06     26.258  69.474   0.269  0.00  0.00    +0.033 A 
ATOM     12  C13 CHE B   06     25.876  71.505  -0.153  0.00  0.00    +0.048 A 
ATOM     13  C14 CHE B   06     26.018  70.540  -0.412  0.00  0.00    +0.057 C 
ATOM     14  C15 CHE B   06     25.097  75.582  -1.136  0.00  0.00    +0.029 C 
ATOM     15  C16 CHE B   06     25.719  71.667  -1.677  0.00  0.00    +0.144 C 
ATOM     16  N3  CHE B   06     26.108  69.629  -1.185  0.00  0.00    -0.267 N 
ATOM     17  N4  CHE B   06     25.966  70.595  -0.927  0.00  0.00    -0.169 NA
ATOM     18  C17 CHE B   06     25.116  76.380   0.695  0.00  0.00    +0.119 A 
BRANCH  18  19
ATOM     19  C18 CHE B   06     26.260  69.472   0.289  0.00  0.00    +0.091 A 
ATOM     20  C19 CHE B   06     26.135  70.491   0.146  0.00  0.00    +0.030 A 
ATOM     21  C20 CHE B   06     26.415  68.478   0.276  0.00  0.00    +0.004 A 
ATOM     22  C21 CHE B   06     24.714  77.173   1.999  0.00  0.00    +0.020 A 
ATOM     23  C22 CHE B   06     24.663  77.132   2.261  0.00  0.00    +0.111 A 
ATOM     24  N5  CHE B   06     25.614  72.306   1.277  0.00  0.00    -0.253 NA
ENDBRANCH  18  19
ENDBRANCH   5  11
BRANCH   1  25
ATOM     25  O1  CHE B   06     20.958  69.280   7.211  0.00  0.00    -0.492 OA
BRANCH  25  26
ATOM     26  C6  CHE B   06     20.384  68.325   7.303  0.00  0.00    +0.227 C 
BRANCH  26  27
ATOM     27  C5  CHE B   06     19.449  67.155   8.290  0.00  0.00    +0.022 C 
BRANCH  27  28
ATOM     28  C4  CHE B   06     19.421  66.968   8.631  0.00  0.00    -0.076 C 
BRANCH  28  33
ATOM     29  C1  CHE B   06     19.767  68.852  13.654  0.00  0.00    -0.096 C 
ATOM     30  N1  CHE B   06     24.767  69.185  14.381  0.00  0.00    +0.375 N 
ATOM     31  C2  CHE B   06     22.132  68.600  12.902  0.00  0.00    -0.098 C 
ATOM     32  C3  CHE B   06     21.643  67.992  11.295  0.00  0.00    -0.098 C 
ATOM     33  N2  CHE B   06     22.773  67.920  11.066  0.00  0.00    +0.377 N 
ATOM     34  C27 CHE B   06     19.717  67.780  10.791  0.00  0.00    -0.098 C 
ATOM     35  C28 CHE B   06     24.125  68.739  13.211  0.00  0.00    -0.098 C 
ATOM     36  H4  CHE B   06     21.717  69.038  14.088  0.00  0.00    -0.082 HD
ATOM     37  H9  CHE B   06     24.615  68.222  11.812  0.00  0.00    -0.082 HD
ENDBRANCH  28  33
ENDBRANCH  27  28
ENDBRANCH  26  27
ENDBRANCH  25  26
ENDBRANCH   1  25
TORSDOF 7
ENDMDL
