MODEL 1
REMARK VINA RESULT:     -10.7      0.000      0.000
REMARK  Name = dock_mp/CHEMBL2/CHEMBL237570.pdb
REMARK  9 active torsions:
REMARK  status: ('A' for Active; 'I' for Inactive)
REMARK    1  A    between atoms: C1_1  and  O1_2
REMARK    2  A    between atoms: O1_2  and  C2_3
REMARK    3  A    between atoms: C7_8  and  C8_9
REMARK    4  A    between atoms: C9_10  and  C10_11
REMARK    5  A    between atoms: C15_18  and  C16_19
REMARK    6  A    between atoms: C19_22  and  S1_23
REMARK    7  A    between atoms: S1_23  and  C20_25
REMARK    8  A    between atoms: C22_27  and  C23_28
REMARK    9  A    between atoms: N3_29  and  C24_30
REMARK                            x       y       z     vdW  Elec       q    Type
REMARK                         _______ _______ _______ _____ _____    ______ ____
ROOT
ATOM      1  C8  CHE B   05     22.130  70.169   1.571  0.00  0.00    +0.077 A 
ATOM      2  C9  CHE B   05     22.462  68.350   9.366  0.00  0.00    +0.097 A 
ATOM      3  N2  CHE B   05     20.630  69.310   3.581  0.00  0.00    -0.227 NA
ATOM      4  C15 CHE B   05     20.656  68.127   8.460  0.00  0.00    +0.142 A 
ATOM      5  N3  CHE B   05     21.352  69.256   4.529  0.00  0.00    -0.326 N 
ATOM      6  C24 CHE B   05     21.303  69.720   2.579  0.00  0.00    +0.151 C 
ENDROOT
BRANCH   1  12
ATOM      7  C2  CHE B   05     28.938  69.096   7.989  0.00  0.00    +0.121 A 
ATOM      8  C3  CHE B   05     27.920  69.483   0.056  0.00  0.00    +0.046 A 
ATOM      9  C4  CHE B   05     27.370  69.258   9.131  0.00  0.00    +0.012 A 
ATOM     10  C5  CHE B   05     25.729  69.722   1.253  0.00  0.00    -0.017 A 
ATOM     11  C6  CHE B   05     24.517  69.840   2.363  0.00  0.00    +0.018 A 
ATOM     12  C7  CHE B   05     23.753  69.870   4.437  0.00  0.00    +0.001 A 
ATOM     13  C25 CHE B   05     23.817  69.992   0.419  0.00  0.00    +0.010 A 
ATOM     14  C26 CHE B   05     25.546  69.615   5.281  0.00  0.00    +0.009 A 
ATOM     15  C27 CHE B   05     26.446  69.503   5.201  0.00  0.00    -0.014 A 
ATOM     16  C28 CHE B   05     27.482  69.472   2.100  0.00  0.00    +0.054 A 
BRANCH   7  18
ATOM     17  C1  CHE B   05     31.063  68.891   1.909  0.00  0.00    +0.277 C 
ATOM     18  O1  CHE B   05     29.955  69.068   4.890  0.00  0.00    -0.495 OA
ENDBRANCH   7  18
ENDBRANCH   1  12
BRANCH   4  19
ATOM     19  C16 CHE B   05     18.655  69.281   1.706  0.00  0.00    +0.020 A 
ATOM     20  C17 CHE B   05     18.099  68.383   4.646  0.00  0.00    +0.013 A 
ATOM     21  C18 CHE B   05     16.511  68.669   1.774  0.00  0.00    +0.018 A 
ATOM     22  C19 CHE B   05     16.141  68.071   3.734  0.00  0.00    +0.039 A 
ATOM     23  C21 CHE B   05     17.482  66.975   9.536  0.00  0.00    +0.021 A 
ATOM     24  C22 CHE B   05     18.088  69.119   1.724  0.00  0.00    -0.039 A 
ATOM     25  C23 CHE B   05     19.164  68.440   5.586  0.00  0.00    +0.044 C 
BRANCH  22  26
ATOM     26  S1  CHE B   05     14.731  66.929   6.701  0.00  0.00    +0.051 S 
ATOM     27  O2  CHE B   05     13.960  66.629   8.645  0.00  0.00    -0.252 OA
ATOM     28  C20 CHE B   05     15.059  66.030   4.845  0.00  0.00    +0.127 C 
ENDBRANCH  22  26
ENDBRANCH   4  19
BRANCH   2  29
ATOM     29  C10 CHE B   05     22.800  69.388   5.449  0.00  0.00    +0.005 A 
ATOM     30  C11 CHE B   05     23.187  70.146   3.513  0.00  0.00    +0.030 A 
ATOM     31  C12 CHE B   05     23.845  70.029   8.516  0.00  0.00    +0.111 A 
ATOM     32  N1  CHE B   05     23.852  70.036   8.516  0.00  0.00    -0.263 NA
ATOM     33  C13 CHE B   05     23.432  69.410   9.462  0.00  0.00    +0.111 A 
ATOM     34  C14 CHE B   05     22.922  69.020   8.424  0.00  0.00    +0.030 A 
ENDBRANCH   2  29
TORSDOF 5
ENDMDL
MODEL 2
REMARK VINA RESULT:     -10.5      4.896      9.499
REMARK  Name = dock_mp/CHEMBL2/CHEMBL237570.pdb
REMARK  9 active torsions:
REMARK  status: ('A' for Active; 'I' for Inactive)
REMARK    1  A    between atoms: C1_1  and  O1_2
REMARK    2  A    between atoms: O1_2  and  C2_3
REMARK    3  A    between atoms: C7_8  and  C8_9
REMARK    4  A    between atoms: C9_10  and  C10_11
REMARK    5  A    between atoms: C15_18  and  C16_19
REMARK    6  A    between atoms: C19_22  and  S1_23
REMARK    7  A    between atoms: S1_23  and  C20_25
REMARK    8  A    between atoms: C22_27  and  C23_28
REMARK    9  A    between atoms: N3_29  and  C24_30
REMARK                            x       y       z     vdW  Elec       q    Type
REMARK                         _______ _______ _______ _____ _____    ______ ____
ROOT
ATOM      1  C8  CHE B   05     17.258  66.884  10.113  0.00  0.00    +0.077 A 
ATOM      2  C9  CHE B   05     24.454  70.379   9.683  0.00  0.00    +0.097 A 
ATOM      3  N2  CHE B   05     19.166  67.929  11.628  0.00  0.00    -0.227 NA
ATOM      4  C15 CHE B   05     23.676  70.134  11.545  0.00  0.00    +0.142 A 
ATOM      5  N3  CHE B   05     20.019  68.292  10.877  0.00  0.00    -0.326 N 
ATOM      6  C24 CHE B   05     18.218  67.415  10.950  0.00  0.00    +0.151 C 
ENDROOT
BRANCH   1  12
ATOM      7  C2  CHE B   05     22.773  70.112   3.195  0.00  0.00    +0.121 A 
ATOM      8  C3  CHE B   05     15.262  67.650   4.482  0.00  0.00    +0.046 A 
ATOM      9  C4  CHE B   05     24.015  70.112   4.694  0.00  0.00    +0.012 A 
ATOM     10  C5  CHE B   05     16.615  67.537   6.591  0.00  0.00    -0.017 A 
ATOM     11  C6  CHE B   05     17.793  67.601   7.741  0.00  0.00    +0.018 A 
ATOM     12  C7  CHE B   05     19.853  68.032   8.416  0.00  0.00    +0.001 A 
ATOM     13  C25 CHE B   05     15.995  66.905   8.498  0.00  0.00    +0.010 A 
ATOM     14  C26 CHE B   05     20.494  68.642   6.625  0.00  0.00    +0.009 A 
ATOM     15  C27 CHE B   05     20.333  68.805   5.744  0.00  0.00    -0.014 A 
ATOM     16  C28 CHE B   05     17.263  68.140   4.838  0.00  0.00    +0.054 A 
BRANCH   7  18
ATOM     17  C1  CHE B   05     16.740  68.897   1.285  0.00  0.00    +0.277 C 
ATOM     18  O1  CHE B   05     19.706  69.442   2.309  0.00  0.00    -0.495 OA
ENDBRANCH   7  18
ENDBRANCH   1  12
BRANCH   4  19
ATOM     19  C16 CHE B   05     17.498  67.260  13.676  0.00  0.00    +0.020 A 
ATOM     20  C17 CHE B   05     20.507  67.987  14.095  0.00  0.00    +0.013 A 
ATOM     21  C18 CHE B   05     18.046  66.494  15.697  0.00  0.00    +0.018 A 
ATOM     22  C19 CHE B   05     20.052  66.978  15.976  0.00  0.00    +0.039 A 
ATOM     23  C21 CHE B   05     25.443  69.307  14.503  0.00  0.00    +0.021 A 
ATOM     24  C22 CHE B   05     17.643  67.058  14.210  0.00  0.00    -0.039 A 
ATOM     25  C23 CHE B   05     21.191  68.675  13.056  0.00  0.00    +0.044 C 
BRANCH  22  26
ATOM     26  S1  CHE B   05     23.280  67.398  17.202  0.00  0.00    +0.051 S 
ATOM     27  O2  CHE B   05     25.133  68.067  17.965  0.00  0.00    -0.252 OA
ATOM     28  C20 CHE B   05     22.204  65.722  16.577  0.00  0.00    +0.127 C 
ENDBRANCH  22  26
ENDBRANCH   4  19
BRANCH   2  29
ATOM     29  C10 CHE B   05     20.821  68.577   9.382  0.00  0.00    +0.005 A 
ATOM     30  C11 CHE B   05     19.057  67.482   8.976  0.00  0.00    +0.030 A 
ATOM     31  C12 CHE B   05     23.855  68.777   8.093  0.00  0.00    +0.111 A 
ATOM     32  N1  CHE B   05     23.856  68.771   8.085  0.00  0.00    -0.263 NA
ATOM     33  C13 CHE B   05     24.685  69.519   8.551  0.00  0.00    +0.111 A 
ATOM     34  C14 CHE B   05     23.635  69.596   9.169  0.00  0.00    +0.030 A 
ENDBRANCH   2  29
TORSDOF 5
ENDMDL
MODEL 3
REMARK VINA RESULT:     -10.2      4.477      8.377
REMARK  Name = dock_mp/CHEMBL2/CHEMBL237570.pdb
REMARK  9 active torsions:
REMARK  status: ('A' for Active; 'I' for Inactive)
REMARK    1  A    between atoms: C1_1  and  O1_2
REMARK    2  A    between atoms: O1_2  and  C2_3
REMARK    3  A    between atoms: C7_8  and  C8_9
REMARK    4  A    between atoms: C9_10  and  C10_11
REMARK    5  A    between atoms: C15_18  and  C16_19
REMARK    6  A    between atoms: C19_22  and  S1_23
REMARK    7  A    between atoms: S1_23  and  C20_25
REMARK    8  A    between atoms: C22_27  and  C23_28
REMARK    9  A    between atoms: N3_29  and  C24_30
REMARK                            x       y       z     vdW  Elec       q    Type
REMARK                         _______ _______ _______ _____ _____    ______ ____
ROOT
ATOM      1  C8  CHE B   05     23.436  70.492   9.325  0.00  0.00    +0.077 A 
ATOM      2  C9  CHE B   05     16.912  66.560  11.807  0.00  0.00    +0.097 A 
ATOM      3  N2  CHE B   05     21.192  69.396   8.434  0.00  0.00    -0.227 NA
ATOM      4  C15 CHE B   05     17.045  66.926   9.812  0.00  0.00    +0.142 A 
ATOM      5  N3  CHE B   05     20.640  68.953   9.394  0.00  0.00    -0.326 N 
ATOM      6  C24 CHE B   05     22.284  69.938   8.806  0.00  0.00    +0.151 C 
ENDROOT
BRANCH   1  12
ATOM      7  C2  CHE B   05     20.523  66.795  17.482  0.00  0.00    +0.121 A 
ATOM      8  C3  CHE B   05     27.081  69.887  14.083  0.00  0.00    +0.046 A 
ATOM      9  C4  CHE B   05     18.893  66.692  16.422  0.00  0.00    +0.012 A 
ATOM     10  C5  CHE B   05     25.154  69.889  12.477  0.00  0.00    -0.017 A 
ATOM     11  C6  CHE B   05     23.695  69.727  11.729  0.00  0.00    +0.018 A 
ATOM     12  C7  CHE B   05     21.569  69.124  11.687  0.00  0.00    +0.001 A 
ATOM     13  C25 CHE B   05     25.122  70.574  10.489  0.00  0.00    +0.010 A 
ATOM     14  C26 CHE B   05     21.545  68.459  13.571  0.00  0.00    +0.009 A 
ATOM     15  C27 CHE B   05     21.974  68.308  14.359  0.00  0.00    -0.014 A 
ATOM     16  C28 CHE B   05     25.111  69.230  14.326  0.00  0.00    +0.054 A 
BRANCH   7  18
ATOM     17  C1  CHE B   05     26.687  68.670  17.571  0.00  0.00    +0.277 C 
ATOM     18  O1  CHE B   05     23.650  67.720  17.433  0.00  0.00    -0.495 OA
ENDBRANCH   7  18
ENDBRANCH   1  12
BRANCH   4  19
ATOM     19  C16 CHE B   05     22.091  70.244   6.006  0.00  0.00    +0.020 A 
ATOM     20  C17 CHE B   05     19.397  68.685   6.273  0.00  0.00    +0.013 A 
ATOM     21  C18 CHE B   05     21.286  70.036   3.937  0.00  0.00    +0.018 A 
ATOM     22  C19 CHE B   05     19.490  68.997   4.115  0.00  0.00    +0.039 A 
ATOM     23  C21 CHE B   05     15.024  66.117   7.015  0.00  0.00    +0.021 A 
ATOM     24  C22 CHE B   05     21.878  70.189   5.459  0.00  0.00    -0.039 A 
ATOM     25  C23 CHE B   05     18.969  68.287   7.568  0.00  0.00    +0.044 C 
BRANCH  22  26
ATOM     26  S1  CHE B   05     16.475  67.355   3.556  0.00  0.00    +0.051 S 
ATOM     27  O2  CHE B   05     14.676  66.251   3.630  0.00  0.00    -0.252 OA
ATOM     28  C20 CHE B   05     17.728  68.485   2.326  0.00  0.00    +0.127 C 
ENDBRANCH  22  26
ENDBRANCH   4  19
BRANCH   2  29
ATOM     29  C10 CHE B   05     20.368  68.562  11.047  0.00  0.00    +0.005 A 
ATOM     30  C11 CHE B   05     22.126  69.735  10.941  0.00  0.00    +0.030 A 
ATOM     31  C12 CHE B   05     17.947  68.085  13.241  0.00  0.00    +0.111 A 
ATOM     32  N1  CHE B   05     17.948  68.090  13.250  0.00  0.00    -0.263 NA
ATOM     33  C13 CHE B   05     17.040  67.326  13.021  0.00  0.00    +0.111 A 
ATOM     34  C14 CHE B   05     17.825  67.357  12.087  0.00  0.00    +0.030 A 
ENDBRANCH   2  29
TORSDOF 5
ENDMDL
MODEL 4
REMARK VINA RESULT:     -10.0      2.938      8.861
REMARK  Name = dock_mp/CHEMBL2/CHEMBL237570.pdb
REMARK  9 active torsions:
REMARK  status: ('A' for Active; 'I' for Inactive)
REMARK    1  A    between atoms: C1_1  and  O1_2
REMARK    2  A    between atoms: O1_2  and  C2_3
REMARK    3  A    between atoms: C7_8  and  C8_9
REMARK    4  A    between atoms: C9_10  and  C10_11
REMARK    5  A    between atoms: C15_18  and  C16_19
REMARK    6  A    between atoms: C19_22  and  S1_23
REMARK    7  A    between atoms: S1_23  and  C20_25
REMARK    8  A    between atoms: C22_27  and  C23_28
REMARK    9  A    between atoms: N3_29  and  C24_30
REMARK                            x       y       z     vdW  Elec       q    Type
REMARK                         _______ _______ _______ _____ _____    ______ ____
ROOT
ATOM      1  C8  CHE B   05     19.963  69.629   2.291  0.00  0.00    +0.077 A 
ATOM      2  C9  CHE B   05     23.186  69.188   9.612  0.00  0.00    +0.097 A 
ATOM      3  N2  CHE B   05     22.294  69.675   3.553  0.00  0.00    -0.227 NA
ATOM      4  C15 CHE B   05     24.483  69.417   8.063  0.00  0.00    +0.142 A 
ATOM      5  N3  CHE B   05     22.041  69.553   4.712  0.00  0.00    -0.326 N 
ATOM      6  C24 CHE B   05     21.203  69.659   2.894  0.00  0.00    +0.151 C 
ENDROOT
BRANCH   1  12
ATOM      7  C2  CHE B   05     16.969  67.341  10.922  0.00  0.00    +0.121 A 
ATOM      8  C3  CHE B   05     14.919  66.473   3.230  0.00  0.00    +0.046 A 
ATOM      9  C4  CHE B   05     18.598  68.323  11.339  0.00  0.00    +0.012 A 
ATOM     10  C5  CHE B   05     17.051  67.775   3.447  0.00  0.00    -0.017 A 
ATOM     11  C6  CHE B   05     18.391  68.574   3.978  0.00  0.00    +0.018 A 
ATOM     12  C7  CHE B   05     19.728  69.315   5.574  0.00  0.00    +0.001 A 
ATOM     13  C25 CHE B   05     18.239  68.586   1.912  0.00  0.00    +0.010 A 
ATOM     14  C26 CHE B   05     18.636  68.566   7.071  0.00  0.00    +0.009 A 
ATOM     15  C27 CHE B   05     17.908  68.103   7.360  0.00  0.00    -0.014 A 
ATOM     16  C28 CHE B   05     15.991  67.047   4.931  0.00  0.00    +0.054 A 
BRANCH   7  18
ATOM     17  C1  CHE B   05     13.368  65.193   6.029  0.00  0.00    +0.277 C 
ATOM     18  O1  CHE B   05     15.068  66.295   8.487  0.00  0.00    -0.495 OA
ENDBRANCH   7  18
ENDBRANCH   1  12
BRANCH   4  19
ATOM     19  C16 CHE B   05     23.312  69.972   1.043  0.00  0.00    +0.020 A 
ATOM     20  C17 CHE B   05     25.145  69.424   3.512  0.00  0.00    +0.013 A 
ATOM     21  C18 CHE B   05     25.332  69.501   0.225  0.00  0.00    +0.018 A 
ATOM     22  C19 CHE B   05     26.554  69.136   1.870  0.00  0.00    +0.039 A 
ATOM     23  C21 CHE B   05     27.911  68.578   7.744  0.00  0.00    +0.021 A 
ATOM     24  C22 CHE B   05     23.846  69.847   0.827  0.00  0.00    -0.039 A 
ATOM     25  C23 CHE B   05     24.579  69.516   4.813  0.00  0.00    +0.044 C 
BRANCH  22  26
ATOM     26  S1  CHE B   05     29.194  68.400   4.012  0.00  0.00    +0.051 S 
ATOM     27  O2  CHE B   05     30.792  68.373   5.394  0.00  0.00    -0.252 OA
ATOM     28  C20 CHE B   05     28.017  67.224   2.751  0.00  0.00    +0.127 C 
ENDBRANCH  22  26
ENDBRANCH   4  19
BRANCH   2  29
ATOM     29  C10 CHE B   05     21.089  69.359   6.132  0.00  0.00    +0.005 A 
ATOM     30  C11 CHE B   05     19.775  69.600   4.492  0.00  0.00    +0.030 A 
ATOM     31  C12 CHE B   05     21.081  70.160   9.336  0.00  0.00    +0.111 A 
ATOM     32  N1  CHE B   05     21.072  70.164   9.339  0.00  0.00    -0.263 NA
ATOM     33  C13 CHE B   05     22.005  69.882  10.055  0.00  0.00    +0.111 A 
ATOM     34  C14 CHE B   05     22.204  69.499   8.914  0.00  0.00    +0.030 A 
ENDBRANCH   2  29
TORSDOF 5
ENDMDL
MODEL 5
REMARK VINA RESULT:      -9.5      3.478      9.028
REMARK  Name = dock_mp/CHEMBL2/CHEMBL237570.pdb
REMARK  9 active torsions:
REMARK  status: ('A' for Active; 'I' for Inactive)
REMARK    1  A    between atoms: C1_1  and  O1_2
REMARK    2  A    between atoms: O1_2  and  C2_3
REMARK    3  A    between atoms: C7_8  and  C8_9
REMARK    4  A    between atoms: C9_10  and  C10_11
REMARK    5  A    between atoms: C15_18  and  C16_19
REMARK    6  A    between atoms: C19_22  and  S1_23
REMARK    7  A    between atoms: S1_23  and  C20_25
REMARK    8  A    between atoms: C22_27  and  C23_28
REMARK    9  A    between atoms: N3_29  and  C24_30
REMARK                            x       y       z     vdW  Elec       q    Type
REMARK                         _______ _______ _______ _____ _____    ______ ____
ROOT
ATOM      1  C8  CHE B   05     21.070  69.852   2.198  0.00  0.00    +0.077 A 
ATOM      2  C9  CHE B   05     25.005  69.811   9.175  0.00  0.00    +0.097 A 
ATOM      3  N2  CHE B   05     23.514  69.956   3.217  0.00  0.00    -0.227 NA
ATOM      4  C15 CHE B   05     26.142  69.943   7.495  0.00  0.00    +0.142 A 
ATOM      5  N3  CHE B   05     23.379  69.902   4.401  0.00  0.00    -0.326 N 
ATOM      6  C24 CHE B   05     22.363  69.910   2.672  0.00  0.00    +0.151 C 
ENDROOT
BRANCH   1  12
ATOM      7  C2  CHE B   05     18.754  68.473  11.222  0.00  0.00    +0.121 A 
ATOM      8  C3  CHE B   05     15.733  67.603   3.856  0.00  0.00    +0.046 A 
ATOM      9  C4  CHE B   05     20.552  69.195  11.403  0.00  0.00    +0.012 A 
ATOM     10  C5  CHE B   05     18.054  68.551   3.766  0.00  0.00    -0.017 A 
ATOM     11  C6  CHE B   05     19.554  69.144   4.103  0.00  0.00    +0.018 A 
ATOM     12  C7  CHE B   05     21.163  69.730   5.501  0.00  0.00    +0.001 A 
ATOM     13  C25 CHE B   05     19.172  69.088   2.068  0.00  0.00    +0.010 A 
ATOM     14  C26 CHE B   05     20.144  69.236   7.147  0.00  0.00    +0.009 A 
ATOM     15  C27 CHE B   05     19.390  68.910   7.540  0.00  0.00    -0.014 A 
ATOM     16  C28 CHE B   05     17.068  68.071   5.396  0.00  0.00    +0.054 A 
BRANCH   7  18
ATOM     17  C1  CHE B   05     14.254  66.644   6.988  0.00  0.00    +0.277 C 
ATOM     18  O1  CHE B   05     16.449  67.641   9.069  0.00  0.00    -0.495 OA
ENDBRANCH   7  18
ENDBRANCH   1  12
BRANCH   4  19
ATOM     19  C16 CHE B   05     24.278  70.102   0.606  0.00  0.00    +0.020 A 
ATOM     20  C17 CHE B   05     26.222  70.739   2.966  0.00  0.00    +0.013 A 
ATOM     21  C18 CHE B   05     26.015  71.172  -0.293  0.00  0.00    +0.018 A 
ATOM     22  C19 CHE B   05     27.311  71.597   1.281  0.00  0.00    +0.039 A 
ATOM     23  C21 CHE B   05     29.213  71.649   7.028  0.00  0.00    +0.021 A 
ATOM     24  C22 CHE B   05     24.737  70.385   0.368  0.00  0.00    -0.039 A 
ATOM     25  C23 CHE B   05     25.857  70.328   4.277  0.00  0.00    +0.044 C 
BRANCH  22  26
ATOM     26  S1  CHE B   05     29.949  72.662   3.282  0.00  0.00    +0.051 S 
ATOM     27  O2  CHE B   05     31.492  72.936   4.698  0.00  0.00    -0.252 OA
ATOM     28  C20 CHE B   05     28.965  73.520   1.653  0.00  0.00    +0.127 C 
ENDBRANCH  22  26
ENDBRANCH   4  19
BRANCH   2  29
ATOM     29  C10 CHE B   05     22.573  69.796   5.917  0.00  0.00    +0.005 A 
ATOM     30  C11 CHE B   05     21.097  69.944   4.408  0.00  0.00    +0.030 A 
ATOM     31  C12 CHE B   05     22.861  70.730   9.072  0.00  0.00    +0.111 A 
ATOM     32  N1  CHE B   05     22.853  70.734   9.075  0.00  0.00    -0.263 NA
ATOM     33  C13 CHE B   05     23.857  70.500   9.706  0.00  0.00    +0.111 A 
ATOM     34  C14 CHE B   05     23.953  70.074   8.566  0.00  0.00    +0.030 A 
ENDBRANCH   2  29
TORSDOF 5
ENDMDL
