MODEL 1
REMARK VINA RESULT:     -11.4      0.000      0.000
REMARK  Name = dock_mp/CHEMBL2/CHEMBL229599.pdb
REMARK  7 active torsions:
REMARK  status: ('A' for Active; 'I' for Inactive)
REMARK    1  A    between atoms: C1_1  and  C2_2
REMARK    2  A    between atoms: C6_6  and  C7_7
REMARK    3  A    between atoms: C8_9  and  C9_10
REMARK    4  A    between atoms: C9_10  and  N2_11
REMARK    5  A    between atoms: N2_11  and  C10_12
REMARK    6  A    between atoms: C14_16  and  C15_17
REMARK    7  A    between atoms: C17_22  and  C18_23
REMARK                            x       y       z     vdW  Elec       q    Type
REMARK                         _______ _______ _______ _____ _____    ______ ____
ROOT
ATOM      1  C7  CHE B   05     26.718  68.977   6.210  0.00  0.00    +0.093 A 
ATOM      2  N1  CHE B   05     24.557  69.363   3.808  0.00  0.00    -0.339 N 
ATOM      3  C8  CHE B   05     23.678  69.452   3.054  0.00  0.00    +0.125 A 
ATOM      4  N4  CHE B   05     23.831  70.112   0.981  0.00  0.00    -0.230 NA
ATOM      5  C17 CHE B   05     25.898  69.703   3.411  0.00  0.00    +0.098 A 
ATOM      6  H7  CHE B   05     24.466  69.030   4.849  0.00  0.00    +0.167 HD
ENDROOT
BRANCH   5   7
ATOM      7  C18 CHE B   05     26.039  70.671   0.327  0.00  0.00    +0.005 A 
ATOM      8  C19 CHE B   05     26.922  71.663   2.189  0.00  0.00    +0.012 A 
ATOM      9  C20 CHE B   05     28.327  72.798   7.004  0.00  0.00    +0.030 A 
ATOM     10  C21 CHE B   05     27.400  72.709   1.076  0.00  0.00    +0.089 A 
ATOM     11  N5  CHE B   05     27.996  73.709   0.958  0.00  0.00    -0.252 NA
ATOM     12  C22 CHE B   05     28.861  73.938   5.880  0.00  0.00    +0.131 A 
ATOM     13  C23 CHE B   05     28.295  72.990   5.992  0.00  0.00    +0.131 A 
ATOM     14  N6  CHE B   05     27.858  72.012   7.097  0.00  0.00    -0.252 NA
ATOM     15  C24 CHE B   05     27.009  71.809   2.172  0.00  0.00    +0.090 A 
ATOM     16  C25 CHE B   05     26.392  70.775   2.294  0.00  0.00    +0.040 A 
ENDBRANCH   5   7
BRANCH   1  22
ATOM     17  C1  CHE B   05     27.652  66.595   4.954  0.00  0.00    +0.065 C 
ATOM     18  C2  CHE B   05     26.264  68.870   0.696  0.00  0.00    +0.039 A 
ATOM     19  C3  CHE B   05     25.926  69.226  -1.299  0.00  0.00    +0.023 A 
ATOM     20  C4  CHE B   05     27.002  67.746   3.378  0.00  0.00    +0.004 A 
ATOM     21  C5  CHE B   05     25.460  70.413  -0.673  0.00  0.00    +0.030 A 
ATOM     22  C6  CHE B   05     25.309  70.797  -0.471  0.00  0.00    +0.090 A 
ATOM     23  N7  CHE B   05     27.446  67.374   6.456  0.00  0.00    -0.250 NA
ENDBRANCH   1  22
BRANCH   3  24
ATOM     24  C9  CHE B   05     21.715  69.577   1.608  0.00  0.00    +0.175 C 
BRANCH  24  25
ATOM     25  N2  CHE B   05     20.896  69.880   1.864  0.00  0.00    -0.337 N 
ATOM     26  H10 CHE B   05     21.120  70.808   0.062  0.00  0.00    +0.147 HD
BRANCH  25  27
ATOM     27  C10 CHE B   05     19.996  67.687   6.477  0.00  0.00    +0.028 A 
ATOM     28  C11 CHE B   05     19.082  69.131   2.817  0.00  0.00    +0.023 A 
ATOM     29  C12 CHE B   05     17.645  69.262   1.925  0.00  0.00    +0.003 A 
ATOM     30  C13 CHE B   05     17.275  67.169   6.528  0.00  0.00    +0.013 A 
ATOM     31  C14 CHE B   05     17.481  68.826   2.847  0.00  0.00    +0.038 A 
ATOM     32  C16 CHE B   05     19.170  67.530   6.493  0.00  0.00    +0.036 A 
BRANCH  31  33
ATOM     33  C15 CHE B   05     16.766  68.286   3.780  0.00  0.00    +0.242 C 
ATOM     34  O1  CHE B   05     15.095  65.234   6.111  0.00  0.00    -0.270 OA
ATOM     35  N3  CHE B   05     17.810  70.732   2.279  0.00  0.00    -0.325 N 
ATOM     36  H14 CHE B   05     18.036  71.639   1.923  0.00  0.00    +0.145 HD
ATOM     37  H15 CHE B   05     17.372  67.832   3.066  0.00  0.00    +0.145 HD
ENDBRANCH  31  33
ENDBRANCH  25  27
ENDBRANCH  24  25
ENDBRANCH   3  24
TORSDOF 6
ENDMDL
MODEL 2
REMARK VINA RESULT:     -11.1      1.909      2.698
REMARK  Name = dock_mp/CHEMBL2/CHEMBL229599.pdb
REMARK  7 active torsions:
REMARK  status: ('A' for Active; 'I' for Inactive)
REMARK    1  A    between atoms: C1_1  and  C2_2
REMARK    2  A    between atoms: C6_6  and  C7_7
REMARK    3  A    between atoms: C8_9  and  C9_10
REMARK    4  A    between atoms: C9_10  and  N2_11
REMARK    5  A    between atoms: N2_11  and  C10_12
REMARK    6  A    between atoms: C14_16  and  C15_17
REMARK    7  A    between atoms: C17_22  and  C18_23
REMARK                            x       y       z     vdW  Elec       q    Type
REMARK                         _______ _______ _______ _____ _____    ______ ____
ROOT
ATOM      1  C7  CHE B   05     28.050  70.733   6.669  0.00  0.00    +0.093 A 
ATOM      2  N1  CHE B   05     25.245  70.179   5.116  0.00  0.00    -0.339 N 
ATOM      3  C8  CHE B   05     24.184  69.949   4.704  0.00  0.00    +0.125 A 
ATOM      4  N4  CHE B   05     23.579  70.031   2.610  0.00  0.00    -0.230 NA
ATOM      5  C17 CHE B   05     26.310  70.559   4.225  0.00  0.00    +0.098 A 
ATOM      6  H7  CHE B   05     25.536  70.134   6.173  0.00  0.00    +0.167 HD
ENDROOT
BRANCH   5   7
ATOM      7  C18 CHE B   05     25.332  70.656   1.143  0.00  0.00    +0.005 A 
ATOM      8  C19 CHE B   05     26.210  72.332   2.428  0.00  0.00    +0.012 A 
ATOM      9  C20 CHE B   05     28.219  75.092   6.274  0.00  0.00    +0.030 A 
ATOM     10  C21 CHE B   05     25.984  73.134   1.061  0.00  0.00    +0.089 A 
ATOM     11  N5  CHE B   05     26.122  74.196   0.592  0.00  0.00    -0.252 NA
ATOM     12  C22 CHE B   05     28.006  75.993   4.862  0.00  0.00    +0.131 A 
ATOM     13  C23 CHE B   05     27.875  74.985   5.308  0.00  0.00    +0.131 A 
ATOM     14  N6  CHE B   05     28.111  74.256   6.643  0.00  0.00    -0.252 NA
ATOM     15  C24 CHE B   05     26.230  72.487   2.360  0.00  0.00    +0.090 A 
ATOM     16  C25 CHE B   05     26.087  71.388   2.846  0.00  0.00    +0.040 A 
ENDBRANCH   5   7
BRANCH   1  22
ATOM     17  C1  CHE B   05     29.254  68.388   5.589  0.00  0.00    +0.065 C 
ATOM     18  C2  CHE B   05     26.147  69.158   1.718  0.00  0.00    +0.039 A 
ATOM     19  C3  CHE B   05     25.184  68.921  -0.081  0.00  0.00    +0.023 A 
ATOM     20  C4  CHE B   05     27.890  68.933   4.150  0.00  0.00    +0.004 A 
ATOM     21  C5  CHE B   05     24.584  70.090   0.457  0.00  0.00    +0.030 A 
ATOM     22  C6  CHE B   05     24.389  70.469   0.632  0.00  0.00    +0.090 A 
ATOM     23  N7  CHE B   05     29.252  69.448   6.923  0.00  0.00    -0.250 NA
ENDBRANCH   1  22
BRANCH   3  24
ATOM     24  C9  CHE B   05     21.899  69.432   4.015  0.00  0.00    +0.175 C 
BRANCH  24  25
ATOM     25  N2  CHE B   05     21.194  69.332   4.581  0.00  0.00    -0.337 N 
ATOM     26  H10 CHE B   05     22.752  69.410   5.895  0.00  0.00    +0.147 HD
BRANCH  25  27
ATOM     27  C10 CHE B   05     17.004  69.094   1.533  0.00  0.00    +0.028 A 
ATOM     28  C11 CHE B   05     19.191  68.517   4.879  0.00  0.00    +0.023 A 
ATOM     29  C12 CHE B   05     18.877  67.806   6.387  0.00  0.00    +0.003 A 
ATOM     30  C13 CHE B   05     15.064  67.818   3.045  0.00  0.00    +0.013 A 
ATOM     31  C14 CHE B   05     18.050  67.766   5.769  0.00  0.00    +0.038 A 
ATOM     32  C16 CHE B   05     16.416  68.707   1.992  0.00  0.00    +0.036 A 
BRANCH  31  33
ATOM     33  C15 CHE B   05     16.831  67.468   5.456  0.00  0.00    +0.242 C 
ATOM     34  O1  CHE B   05     13.684  65.289   3.756  0.00  0.00    -0.270 OA
ATOM     35  N3  CHE B   05     18.886  69.276   6.810  0.00  0.00    -0.325 N 
ATOM     36  H14 CHE B   05     19.393  69.980   7.307  0.00  0.00    +0.145 HD
ATOM     37  H15 CHE B   05     17.712  66.965   5.227  0.00  0.00    +0.145 HD
ENDBRANCH  31  33
ENDBRANCH  25  27
ENDBRANCH  24  25
ENDBRANCH   3  24
TORSDOF 6
ENDMDL
MODEL 3
REMARK VINA RESULT:     -10.5      4.814      8.308
REMARK  Name = dock_mp/CHEMBL2/CHEMBL229599.pdb
REMARK  7 active torsions:
REMARK  status: ('A' for Active; 'I' for Inactive)
REMARK    1  A    between atoms: C1_1  and  C2_2
REMARK    2  A    between atoms: C6_6  and  C7_7
REMARK    3  A    between atoms: C8_9  and  C9_10
REMARK    4  A    between atoms: C9_10  and  N2_11
REMARK    5  A    between atoms: N2_11  and  C10_12
REMARK    6  A    between atoms: C14_16  and  C15_17
REMARK    7  A    between atoms: C17_22  and  C18_23
REMARK                            x       y       z     vdW  Elec       q    Type
REMARK                         _______ _______ _______ _____ _____    ______ ____
ROOT
ATOM      1  C7  CHE B   05     26.716  66.922   6.335  0.00  0.00    +0.093 A 
ATOM      2  N1  CHE B   05     24.059  68.448   7.430  0.00  0.00    -0.339 N 
ATOM      3  C8  CHE B   05     23.062  68.993   7.671  0.00  0.00    +0.125 A 
ATOM      4  N4  CHE B   05     22.406  69.649   9.645  0.00  0.00    -0.230 NA
ATOM      5  C17 CHE B   05     24.998  68.144   8.478  0.00  0.00    +0.098 A 
ATOM      6  H7  CHE B   05     24.377  68.124   6.432  0.00  0.00    +0.167 HD
ENDROOT
BRANCH   5   7
ATOM      7  C18 CHE B   05     23.952  69.147  11.370  0.00  0.00    +0.005 A 
ATOM      8  C19 CHE B   05     24.618  67.056  10.726  0.00  0.00    +0.012 A 
ATOM      9  C20 CHE B   05     26.309  62.996   8.062  0.00  0.00    +0.030 A 
ATOM     10  C21 CHE B   05     24.256  66.762  12.257  0.00  0.00    +0.089 A 
ATOM     11  N5  CHE B   05     24.237  65.894  13.041  0.00  0.00    -0.252 NA
ATOM     12  C22 CHE B   05     25.945  62.620   9.667  0.00  0.00    +0.131 A 
ATOM     13  C23 CHE B   05     25.963  63.444   8.923  0.00  0.00    +0.131 A 
ATOM     14  N6  CHE B   05     26.324  63.679   7.445  0.00  0.00    -0.252 NA
ATOM     15  C24 CHE B   05     24.616  66.930  10.840  0.00  0.00    +0.090 A 
ATOM     16  C25 CHE B   05     24.635  67.827  10.029  0.00  0.00    +0.040 A 
ENDBRANCH   5   7
BRANCH   1  22
ATOM     17  C1  CHE B   05     28.342  69.220   6.779  0.00  0.00    +0.065 C 
ATOM     18  C2  CHE B   05     25.066  70.234  10.449  0.00  0.00    +0.039 A 
ATOM     19  C3  CHE B   05     24.133  71.174  12.020  0.00  0.00    +0.023 A 
ATOM     20  C4  CHE B   05     26.867  69.393   8.202  0.00  0.00    +0.004 A 
ATOM     21  C5  CHE B   05     23.323  70.029  11.799  0.00  0.00    +0.030 A 
ATOM     22  C6  CHE B   05     23.060  69.658  11.727  0.00  0.00    +0.090 A 
ATOM     23  N7  CHE B   05     28.155  67.827   5.816  0.00  0.00    -0.250 NA
ENDBRANCH   1  22
BRANCH   3  24
ATOM     24  C9  CHE B   05     20.926  70.129   7.993  0.00  0.00    +0.175 C 
BRANCH  24  25
ATOM     25  N2  CHE B   05     20.124  69.713   8.102  0.00  0.00    -0.337 N 
ATOM     26  H10 CHE B   05     20.757  69.872  10.034  0.00  0.00    +0.147 HD
BRANCH  25  27
ATOM     27  C10 CHE B   05     18.206  69.139   3.317  0.00  0.00    +0.028 A 
ATOM     28  C11 CHE B   05     18.289  68.808   7.341  0.00  0.00    +0.023 A 
ATOM     29  C12 CHE B   05     17.237  68.141   8.493  0.00  0.00    +0.003 A 
ATOM     30  C13 CHE B   05     15.790  67.824   3.644  0.00  0.00    +0.013 A 
ATOM     31  C14 CHE B   05     16.868  68.034   7.534  0.00  0.00    +0.038 A 
ATOM     32  C16 CHE B   05     17.473  68.740   3.416  0.00  0.00    +0.036 A 
BRANCH  31  33
ATOM     33  C15 CHE B   05     16.009  67.661   6.641  0.00  0.00    +0.242 C 
ATOM     34  O1  CHE B   05     14.324  65.281   3.636  0.00  0.00    -0.270 OA
ATOM     35  N3  CHE B   05     16.965  69.603   8.795  0.00  0.00    -0.325 N 
ATOM     36  H14 CHE B   05     17.104  70.341   9.455  0.00  0.00    +0.145 HD
ATOM     37  H15 CHE B   05     16.900  67.208   6.929  0.00  0.00    +0.145 HD
ENDBRANCH  31  33
ENDBRANCH  25  27
ENDBRANCH  24  25
ENDBRANCH   3  24
TORSDOF 6
ENDMDL
MODEL 4
REMARK VINA RESULT:     -10.5      4.538      7.650
REMARK  Name = dock_mp/CHEMBL2/CHEMBL229599.pdb
REMARK  7 active torsions:
REMARK  status: ('A' for Active; 'I' for Inactive)
REMARK    1  A    between atoms: C1_1  and  C2_2
REMARK    2  A    between atoms: C6_6  and  C7_7
REMARK    3  A    between atoms: C8_9  and  C9_10
REMARK    4  A    between atoms: C9_10  and  N2_11
REMARK    5  A    between atoms: N2_11  and  C10_12
REMARK    6  A    between atoms: C14_16  and  C15_17
REMARK    7  A    between atoms: C17_22  and  C18_23
REMARK                            x       y       z     vdW  Elec       q    Type
REMARK                         _______ _______ _______ _____ _____    ______ ____
ROOT
ATOM      1  C7  CHE B   05     27.560  67.477   6.502  0.00  0.00    +0.093 A 
ATOM      2  N1  CHE B   05     24.622  68.817   6.902  0.00  0.00    -0.339 N 
ATOM      3  C8  CHE B   05     23.565  69.298   6.887  0.00  0.00    +0.125 A 
ATOM      4  N4  CHE B   05     22.383  69.844   8.637  0.00  0.00    -0.230 NA
ATOM      5  C17 CHE B   05     25.276  68.525   8.151  0.00  0.00    +0.098 A 
ATOM      6  H7  CHE B   05     25.206  68.547   6.014  0.00  0.00    +0.167 HD
ENDROOT
BRANCH   5   7
ATOM      7  C18 CHE B   05     23.460  69.363  10.693  0.00  0.00    +0.005 A 
ATOM      8  C19 CHE B   05     24.357  67.324  10.174  0.00  0.00    +0.012 A 
ATOM      9  C20 CHE B   05     26.856  63.442   7.910  0.00  0.00    +0.030 A 
ATOM     10  C21 CHE B   05     23.612  66.949  11.541  0.00  0.00    +0.089 A 
ATOM     11  N5  CHE B   05     23.420  66.045  12.259  0.00  0.00    -0.252 NA
ATOM     12  C22 CHE B   05     26.093  62.982   9.345  0.00  0.00    +0.131 A 
ATOM     13  C23 CHE B   05     26.275  63.840   8.664  0.00  0.00    +0.131 A 
ATOM     14  N6  CHE B   05     27.007  64.152   7.346  0.00  0.00    -0.252 NA
ATOM     15  C24 CHE B   05     24.329  67.192  10.278  0.00  0.00    +0.090 A 
ATOM     16  C25 CHE B   05     24.527  68.127   9.536  0.00  0.00    +0.040 A 
ENDBRANCH   5   7
BRANCH   1  22
ATOM     17  C1  CHE B   05     28.845  69.875   7.352  0.00  0.00    +0.065 C 
ATOM     18  C2  CHE B   05     24.688  70.562  10.087  0.00  0.00    +0.039 A 
ATOM     19  C3  CHE B   05     23.324  71.393  11.378  0.00  0.00    +0.023 A 
ATOM     20  C4  CHE B   05     27.052  69.908   8.360  0.00  0.00    +0.004 A 
ATOM     21  C5  CHE B   05     22.684  70.199  10.955  0.00  0.00    +0.030 A 
ATOM     22  C6  CHE B   05     22.476  69.812  10.817  0.00  0.00    +0.090 A 
ATOM     23  N7  CHE B   05     29.011  68.496   6.365  0.00  0.00    -0.250 NA
ENDBRANCH   1  22
BRANCH   3  24
ATOM     24  C9  CHE B   05     21.352  70.304   6.668  0.00  0.00    +0.175 C 
BRANCH  24  25
ATOM     25  N2  CHE B   05     20.738  70.082   6.034  0.00  0.00    -0.337 N 
ATOM     26  H10 CHE B   05     22.392  70.419   4.889  0.00  0.00    +0.147 HD
BRANCH  25  27
ATOM     27  C10 CHE B   05     16.348  69.146   8.634  0.00  0.00    +0.028 A 
ATOM     28  C11 CHE B   05     18.896  69.040   5.501  0.00  0.00    +0.023 A 
ATOM     29  C12 CHE B   05     18.820  68.382   3.940  0.00  0.00    +0.003 A 
ATOM     30  C13 CHE B   05     14.743  67.724   6.881  0.00  0.00    +0.013 A 
ATOM     31  C14 CHE B   05     17.951  68.203   4.470  0.00  0.00    +0.038 A 
ATOM     32  C16 CHE B   05     15.861  68.715   8.102  0.00  0.00    +0.036 A 
BRANCH  31  33
ATOM     33  C15 CHE B   05     16.758  67.736   4.645  0.00  0.00    +0.242 C 
ATOM     34  O1  CHE B   05     13.757  65.212   6.115  0.00  0.00    -0.270 OA
ATOM     35  N3  CHE B   05     18.696  69.746   3.408  0.00  0.00    -0.325 N 
ATOM     36  H14 CHE B   05     19.160  70.483   2.916  0.00  0.00    +0.145 HD
ATOM     37  H15 CHE B   05     17.661  67.401   5.037  0.00  0.00    +0.145 HD
ENDBRANCH  31  33
ENDBRANCH  25  27
ENDBRANCH  24  25
ENDBRANCH   3  24
TORSDOF 6
ENDMDL
MODEL 5
REMARK VINA RESULT:     -10.1      5.518      8.646
REMARK  Name = dock_mp/CHEMBL2/CHEMBL229599.pdb
REMARK  7 active torsions:
REMARK  status: ('A' for Active; 'I' for Inactive)
REMARK    1  A    between atoms: C1_1  and  C2_2
REMARK    2  A    between atoms: C6_6  and  C7_7
REMARK    3  A    between atoms: C8_9  and  C9_10
REMARK    4  A    between atoms: C9_10  and  N2_11
REMARK    5  A    between atoms: N2_11  and  C10_12
REMARK    6  A    between atoms: C14_16  and  C15_17
REMARK    7  A    between atoms: C17_22  and  C18_23
REMARK                            x       y       z     vdW  Elec       q    Type
REMARK                         _______ _______ _______ _____ _____    ______ ____
ROOT
ATOM      1  C7  CHE B   05     25.770  64.135  10.121  0.00  0.00    +0.093 A 
ATOM      2  N1  CHE B   05     23.770  66.569  10.934  0.00  0.00    -0.339 N 
ATOM      3  C8  CHE B   05     22.943  67.329  11.229  0.00  0.00    +0.125 A 
ATOM      4  N4  CHE B   05     23.221  69.471  11.529  0.00  0.00    -0.230 NA
ATOM      5  C17 CHE B   05     25.127  67.007  10.731  0.00  0.00    +0.098 A 
ATOM      6  H7  CHE B   05     23.617  65.494  10.786  0.00  0.00    +0.167 HD
ENDROOT
BRANCH   5   7
ATOM      7  C18 CHE B   05     25.454  70.192  11.194  0.00  0.00    +0.005 A 
ATOM      8  C19 CHE B   05     26.106  68.923   9.406  0.00  0.00    +0.012 A 
ATOM      9  C20 CHE B   05     27.021  65.048   6.152  0.00  0.00    +0.030 A 
ATOM     10  C21 CHE B   05     26.599  70.361   8.908  0.00  0.00    +0.089 A 
ATOM     11  N5  CHE B   05     27.130  70.883   8.005  0.00  0.00    -0.252 NA
ATOM     12  C22 CHE B   05     27.564  66.536   5.568  0.00  0.00    +0.131 A 
ATOM     13  C23 CHE B   05     27.061  66.042   6.425  0.00  0.00    +0.131 A 
ATOM     14  N6  CHE B   05     26.604  64.638   6.862  0.00  0.00    -0.252 NA
ATOM     15  C24 CHE B   05     26.183  68.998   9.275  0.00  0.00    +0.090 A 
ATOM     16  C25 CHE B   05     25.634  68.459  10.209  0.00  0.00    +0.040 A 
ENDBRANCH   5   7
BRANCH   1  22
ATOM     17  C1  CHE B   05     27.069  64.225  12.657  0.00  0.00    +0.065 C 
ATOM     18  C2  CHE B   05     25.829  69.091  12.581  0.00  0.00    +0.039 A 
ATOM     19  C3  CHE B   05     25.634  71.059  13.139  0.00  0.00    +0.023 A 
ATOM     20  C4  CHE B   05     26.442  66.162  12.370  0.00  0.00    +0.004 A 
ATOM     21  C5  CHE B   05     24.987  71.014  11.876  0.00  0.00    +0.030 A 
ATOM     22  C6  CHE B   05     24.777  71.000  11.467  0.00  0.00    +0.090 A 
ATOM     23  N7  CHE B   05     26.645  63.205  11.359  0.00  0.00    -0.250 NA
ENDBRANCH   1  22
BRANCH   3  24
ATOM     24  C9  CHE B   05     21.082  68.782  11.850  0.00  0.00    +0.175 C 
BRANCH  24  25
ATOM     25  N2  CHE B   05     20.211  68.522  11.899  0.00  0.00    -0.337 N 
ATOM     26  H10 CHE B   05     20.804  68.295  13.837  0.00  0.00    +0.147 HD
BRANCH  25  27
ATOM     27  C10 CHE B   05     18.364  68.982   7.073  0.00  0.00    +0.028 A 
ATOM     28  C11 CHE B   05     18.307  67.974  10.984  0.00  0.00    +0.023 A 
ATOM     29  C12 CHE B   05     17.158  67.248  11.999  0.00  0.00    +0.003 A 
ATOM     30  C13 CHE B   05     15.809  67.916   7.157  0.00  0.00    +0.013 A 
ATOM     31  C14 CHE B   05     16.803  67.346  11.034  0.00  0.00    +0.038 A 
ATOM     32  C16 CHE B   05     17.590  68.659   7.099  0.00  0.00    +0.036 A 
BRANCH  31  33
ATOM     33  C15 CHE B   05     15.932  67.229  10.085  0.00  0.00    +0.242 C 
ATOM     34  O1  CHE B   05     14.144  65.678   6.631  0.00  0.00    -0.270 OA
ATOM     35  N3  CHE B   05     16.974  68.583  12.616  0.00  0.00    -0.325 N 
ATOM     36  H14 CHE B   05     17.147  69.146  13.425  0.00  0.00    +0.145 HD
ATOM     37  H15 CHE B   05     16.797  66.678  10.258  0.00  0.00    +0.145 HD
ENDBRANCH  31  33
ENDBRANCH  25  27
ENDBRANCH  24  25
ENDBRANCH   3  24
TORSDOF 6
ENDMDL
MODEL 6
REMARK VINA RESULT:     -10.1      4.531      6.981
REMARK  Name = dock_mp/CHEMBL2/CHEMBL229599.pdb
REMARK  7 active torsions:
REMARK  status: ('A' for Active; 'I' for Inactive)
REMARK    1  A    between atoms: C1_1  and  C2_2
REMARK    2  A    between atoms: C6_6  and  C7_7
REMARK    3  A    between atoms: C8_9  and  C9_10
REMARK    4  A    between atoms: C9_10  and  N2_11
REMARK    5  A    between atoms: N2_11  and  C10_12
REMARK    6  A    between atoms: C14_16  and  C15_17
REMARK    7  A    between atoms: C17_22  and  C18_23
REMARK                            x       y       z     vdW  Elec       q    Type
REMARK                         _______ _______ _______ _____ _____    ______ ____
ROOT
ATOM      1  C7  CHE B   05     26.760  66.721   6.473  0.00  0.00    +0.093 A 
ATOM      2  N1  CHE B   05     24.247  68.416   7.655  0.00  0.00    -0.339 N 
ATOM      3  C8  CHE B   05     23.268  68.962   7.957  0.00  0.00    +0.125 A 
ATOM      4  N4  CHE B   05     23.015  70.283   9.675  0.00  0.00    -0.230 NA
ATOM      5  C17 CHE B   05     25.445  68.576   8.438  0.00  0.00    +0.098 A 
ATOM      6  H7  CHE B   05     24.360  67.754   6.789  0.00  0.00    +0.167 HD
ENDROOT
BRANCH   5   7
ATOM      7  C18 CHE B   05     24.988  70.546  10.962  0.00  0.00    +0.005 A 
ATOM      8  C19 CHE B   05     26.643  70.589   9.384  0.00  0.00    +0.012 A 
ATOM      9  C20 CHE B   05     29.671  69.582   5.352  0.00  0.00    +0.030 A 
ATOM     10  C21 CHE B   05     27.087  71.845  10.272  0.00  0.00    +0.089 A 
ATOM     11  N5  CHE B   05     27.911  72.673  10.336  0.00  0.00    -0.252 NA
ATOM     12  C22 CHE B   05     30.192  70.916   6.246  0.00  0.00    +0.131 A 
ATOM     13  C23 CHE B   05     29.410  70.131   6.185  0.00  0.00    +0.131 A 
ATOM     14  N6  CHE B   05     29.023  68.931   5.302  0.00  0.00    -0.252 NA
ATOM     15  C24 CHE B   05     26.762  70.710   9.393  0.00  0.00    +0.090 A 
ATOM     16  C25 CHE B   05     25.910  69.853   9.327  0.00  0.00    +0.040 A 
ENDBRANCH   5   7
BRANCH   1  22
ATOM     17  C1  CHE B   05     26.571  64.851   8.615  0.00  0.00    +0.065 C 
ATOM     18  C2  CHE B   05     24.779  68.751  11.223  0.00  0.00    +0.039 A 
ATOM     19  C3  CHE B   05     24.018  69.877  12.764  0.00  0.00    +0.023 A 
ATOM     20  C4  CHE B   05     25.873  66.600   9.442  0.00  0.00    +0.004 A 
ATOM     21  C5  CHE B   05     24.111  70.809  11.697  0.00  0.00    +0.030 A 
ATOM     22  C6  CHE B   05     24.142  71.110  11.351  0.00  0.00    +0.090 A 
ATOM     23  N7  CHE B   05     27.027  65.039   6.984  0.00  0.00    -0.250 NA
ENDBRANCH   1  22
BRANCH   3  24
ATOM     24  C9  CHE B   05     21.126  70.030   8.442  0.00  0.00    +0.175 C 
BRANCH  24  25
ATOM     25  N2  CHE B   05     20.335  69.592   8.538  0.00  0.00    -0.337 N 
ATOM     26  H10 CHE B   05     20.915  69.803  10.482  0.00  0.00    +0.147 HD
BRANCH  25  27
ATOM     27  C10 CHE B   05     18.553  68.882   3.719  0.00  0.00    +0.028 A 
ATOM     28  C11 CHE B   05     18.621  68.502   7.740  0.00  0.00    +0.023 A 
ATOM     29  C12 CHE B   05     17.635  67.705   8.867  0.00  0.00    +0.003 A 
ATOM     30  C13 CHE B   05     16.294  67.303   3.994  0.00  0.00    +0.013 A 
ATOM     31  C14 CHE B   05     17.292  67.572   7.901  0.00  0.00    +0.038 A 
ATOM     32  C16 CHE B   05     17.868  68.403   3.803  0.00  0.00    +0.036 A 
BRANCH  31  33
ATOM     33  C15 CHE B   05     16.492  67.120   6.992  0.00  0.00    +0.242 C 
ATOM     34  O1  CHE B   05     15.121  64.616   3.928  0.00  0.00    -0.270 OA
ATOM     35  N3  CHE B   05     17.197  69.121   9.188  0.00  0.00    -0.325 N 
ATOM     36  H14 CHE B   05     17.244  69.860   9.861  0.00  0.00    +0.145 HD
ATOM     37  H15 CHE B   05     17.424  66.766   7.285  0.00  0.00    +0.145 HD
ENDBRANCH  31  33
ENDBRANCH  25  27
ENDBRANCH  24  25
ENDBRANCH   3  24
TORSDOF 6
ENDMDL
MODEL 7
REMARK VINA RESULT:     -10.1      3.984      6.674
REMARK  Name = dock_mp/CHEMBL2/CHEMBL229599.pdb
REMARK  7 active torsions:
REMARK  status: ('A' for Active; 'I' for Inactive)
REMARK    1  A    between atoms: C1_1  and  C2_2
REMARK    2  A    between atoms: C6_6  and  C7_7
REMARK    3  A    between atoms: C8_9  and  C9_10
REMARK    4  A    between atoms: C9_10  and  N2_11
REMARK    5  A    between atoms: N2_11  and  C10_12
REMARK    6  A    between atoms: C14_16  and  C15_17
REMARK    7  A    between atoms: C17_22  and  C18_23
REMARK                            x       y       z     vdW  Elec       q    Type
REMARK                         _______ _______ _______ _____ _____    ______ ____
ROOT
ATOM      1  C7  CHE B   05     27.075  69.357   6.120  0.00  0.00    +0.093 A 
ATOM      2  N1  CHE B   05     23.932  69.671   6.900  0.00  0.00    -0.339 N 
ATOM      3  C8  CHE B   05     22.784  69.796   7.024  0.00  0.00    +0.125 A 
ATOM      4  N4  CHE B   05     21.693  69.805   8.913  0.00  0.00    -0.230 NA
ATOM      5  C17 CHE B   05     24.778  69.502   8.053  0.00  0.00    +0.098 A 
ATOM      6  H7  CHE B   05     24.468  69.669   5.944  0.00  0.00    +0.167 HD
ENDROOT
BRANCH   5   7
ATOM      7  C18 CHE B   05     23.086  69.526  10.810  0.00  0.00    +0.005 A 
ATOM      8  C19 CHE B   05     25.125  70.462  10.364  0.00  0.00    +0.012 A 
ATOM      9  C20 CHE B   05     29.473  72.020   8.105  0.00  0.00    +0.030 A 
ATOM     10  C21 CHE B   05     24.963  70.890  11.898  0.00  0.00    +0.089 A 
ATOM     11  N5  CHE B   05     25.519  71.471  12.747  0.00  0.00    -0.252 NA
ATOM     12  C22 CHE B   05     29.364  72.503   9.719  0.00  0.00    +0.131 A 
ATOM     13  C23 CHE B   05     28.837  71.951   8.912  0.00  0.00    +0.131 A 
ATOM     14  N6  CHE B   05     29.036  71.563   7.437  0.00  0.00    -0.252 NA
ATOM     15  C24 CHE B   05     25.206  70.546  10.487  0.00  0.00    +0.090 A 
ATOM     16  C25 CHE B   05     24.630  69.945   9.608  0.00  0.00    +0.040 A 
ENDBRANCH   5   7
BRANCH   1  22
ATOM     17  C1  CHE B   05     27.007  66.580   6.759  0.00  0.00    +0.065 C 
ATOM     18  C2  CHE B   05     23.433  67.912  10.027  0.00  0.00    +0.039 A 
ATOM     19  C3  CHE B   05     21.987  67.800  11.483  0.00  0.00    +0.023 A 
ATOM     20  C4  CHE B   05     25.584  67.393   8.002  0.00  0.00    +0.004 A 
ATOM     21  C5  CHE B   05     22.021  69.184  11.165  0.00  0.00    +0.030 A 
ATOM     22  C6  CHE B   05     22.032  69.632  11.062  0.00  0.00    +0.090 A 
ATOM     23  N7  CHE B   05     27.757  67.752   5.775  0.00  0.00    -0.250 NA
ENDBRANCH   1  22
BRANCH   3  24
ATOM     24  C9  CHE B   05     20.359  70.072   7.095  0.00  0.00    +0.175 C 
BRANCH  24  25
ATOM     25  N2  CHE B   05     19.813  70.081   6.367  0.00  0.00    -0.337 N 
ATOM     26  H10 CHE B   05     21.299  71.343   5.768  0.00  0.00    +0.147 HD
BRANCH  25  27
ATOM     27  C10 CHE B   05     15.871  66.929   7.563  0.00  0.00    +0.028 A 
ATOM     28  C11 CHE B   05     18.519  68.805   5.158  0.00  0.00    +0.023 A 
ATOM     29  C12 CHE B   05     18.807  68.797   3.487  0.00  0.00    +0.003 A 
ATOM     30  C13 CHE B   05     15.029  65.855   5.152  0.00  0.00    +0.013 A 
ATOM     31  C14 CHE B   05     18.024  68.173   3.740  0.00  0.00    +0.038 A 
ATOM     32  C16 CHE B   05     15.616  66.603   6.832  0.00  0.00    +0.036 A 
BRANCH  31  33
ATOM     33  C15 CHE B   05     17.070  67.332   3.506  0.00  0.00    +0.242 C 
ATOM     34  O1  CHE B   05     15.048  63.664   3.491  0.00  0.00    -0.270 OA
ATOM     35  N3  CHE B   05     18.269  70.136   3.354  0.00  0.00    -0.325 N 
ATOM     36  H14 CHE B   05     18.484  71.102   3.208  0.00  0.00    +0.145 HD
ATOM     37  H15 CHE B   05     17.984  67.178   3.976  0.00  0.00    +0.145 HD
ENDBRANCH  31  33
ENDBRANCH  25  27
ENDBRANCH  24  25
ENDBRANCH   3  24
TORSDOF 6
ENDMDL
MODEL 8
REMARK VINA RESULT:      -9.7      4.310      7.443
REMARK  Name = dock_mp/CHEMBL2/CHEMBL229599.pdb
REMARK  7 active torsions:
REMARK  status: ('A' for Active; 'I' for Inactive)
REMARK    1  A    between atoms: C1_1  and  C2_2
REMARK    2  A    between atoms: C6_6  and  C7_7
REMARK    3  A    between atoms: C8_9  and  C9_10
REMARK    4  A    between atoms: C9_10  and  N2_11
REMARK    5  A    between atoms: N2_11  and  C10_12
REMARK    6  A    between atoms: C14_16  and  C15_17
REMARK    7  A    between atoms: C17_22  and  C18_23
REMARK                            x       y       z     vdW  Elec       q    Type
REMARK                         _______ _______ _______ _____ _____    ______ ____
ROOT
ATOM      1  C7  CHE B   05     26.755  69.786   6.327  0.00  0.00    +0.093 A 
ATOM      2  N1  CHE B   05     23.792  69.545   7.650  0.00  0.00    -0.339 N 
ATOM      3  C8  CHE B   05     22.679  69.482   7.977  0.00  0.00    +0.125 A 
ATOM      4  N4  CHE B   05     21.958  69.152  10.009  0.00  0.00    -0.230 NA
ATOM      5  C17 CHE B   05     24.848  69.402   8.618  0.00  0.00    +0.098 A 
ATOM      6  H7  CHE B   05     24.141  69.712   6.624  0.00  0.00    +0.167 HD
ENDROOT
BRANCH   5   7
ATOM      7  C18 CHE B   05     23.697  68.917  11.602  0.00  0.00    +0.005 A 
ATOM      8  C19 CHE B   05     25.278  70.410  10.895  0.00  0.00    +0.012 A 
ATOM      9  C20 CHE B   05     28.563  73.183   8.073  0.00  0.00    +0.030 A 
ATOM     10  C21 CHE B   05     25.254  70.765  12.456  0.00  0.00    +0.089 A 
ATOM     11  N5  CHE B   05     25.751  71.479  13.238  0.00  0.00    -0.252 NA
ATOM     12  C22 CHE B   05     28.585  73.605   9.707  0.00  0.00    +0.131 A 
ATOM     13  C23 CHE B   05     28.114  72.927   8.965  0.00  0.00    +0.131 A 
ATOM     14  N6  CHE B   05     28.172  72.621   7.458  0.00  0.00    -0.252 NA
ATOM     15  C24 CHE B   05     25.350  70.514  11.008  0.00  0.00    +0.090 A 
ATOM     16  C25 CHE B   05     24.836  69.776  10.199  0.00  0.00    +0.040 A 
ENDBRANCH   5   7
BRANCH   1  22
ATOM     17  C1  CHE B   05     27.101  66.969   6.584  0.00  0.00    +0.065 C 
ATOM     18  C2  CHE B   05     24.064  67.444  10.557  0.00  0.00    +0.039 A 
ATOM     19  C3  CHE B   05     22.930  66.979  12.206  0.00  0.00    +0.023 A 
ATOM     20  C4  CHE B   05     25.851  67.443   8.147  0.00  0.00    +0.004 A 
ATOM     21  C5  CHE B   05     22.757  68.383  12.078  0.00  0.00    +0.030 A 
ATOM     22  C6  CHE B   05     22.702  68.837  12.037  0.00  0.00    +0.090 A 
ATOM     23  N7  CHE B   05     27.529  68.333   5.657  0.00  0.00    -0.250 NA
ENDBRANCH   1  22
BRANCH   3  24
ATOM     24  C9  CHE B   05     20.293  69.377   8.482  0.00  0.00    +0.175 C 
BRANCH  24  25
ATOM     25  N2  CHE B   05     19.783  68.625   8.437  0.00  0.00    -0.337 N 
ATOM     26  H10 CHE B   05     20.493  68.511  10.345  0.00  0.00    +0.147 HD
BRANCH  25  27
ATOM     27  C10 CHE B   05     17.794  68.596   3.646  0.00  0.00    +0.028 A 
ATOM     28  C11 CHE B   05     17.942  67.799   7.603  0.00  0.00    +0.023 A 
ATOM     29  C12 CHE B   05     16.913  66.994   8.684  0.00  0.00    +0.003 A 
ATOM     30  C13 CHE B   05     15.393  67.231   3.853  0.00  0.00    +0.013 A 
ATOM     31  C14 CHE B   05     16.529  66.996   7.725  0.00  0.00    +0.038 A 
ATOM     32  C16 CHE B   05     17.066  68.182   3.709  0.00  0.00    +0.036 A 
BRANCH  31  33
ATOM     33  C15 CHE B   05     15.660  66.723   6.807  0.00  0.00    +0.242 C 
ATOM     34  O1  CHE B   05     13.975  64.736   3.528  0.00  0.00    -0.270 OA
ATOM     35  N3  CHE B   05     16.607  68.370   9.198  0.00  0.00    -0.325 N 
ATOM     36  H14 CHE B   05     16.738  69.011   9.955  0.00  0.00    +0.145 HD
ATOM     37  H15 CHE B   05     16.574  66.268   7.006  0.00  0.00    +0.145 HD
ENDBRANCH  31  33
ENDBRANCH  25  27
ENDBRANCH  24  25
ENDBRANCH   3  24
TORSDOF 6
ENDMDL
