MODEL 1
REMARK VINA RESULT:      -9.0      0.000      0.000
REMARK  Name = dock_mp/CHEMBL2/CHEMBL268889.pdb
REMARK  2 active torsions:
REMARK  status: ('A' for Active; 'I' for Inactive)
REMARK    1  A    between atoms: C4_5  and  C5_6
REMARK    2  A    between atoms: C10_12  and  C11_13
REMARK                            x       y       z     vdW  Elec       q    Type
REMARK                         _______ _______ _______ _____ _____    ______ ____
ROOT
ATOM      1  C1  CHE B   08     16.407  66.705   9.423  0.00  0.00    +0.029 C 
ATOM      2  C2  CHE B   08     21.772  70.198   6.260  0.00  0.00    +0.076 C 
ATOM      3  C3  CHE B   08     20.037  69.617   7.070  0.00  0.00    +0.111 A 
ATOM      4  N1  CHE B   08     22.193  71.409   5.648  0.00  0.00    -0.230 NA
ATOM      5  C4  CHE B   08     19.073  69.525   7.430  0.00  0.00    +0.115 A 
ATOM      6  C10 CHE B   08     17.093  67.370   8.934  0.00  0.00    +0.078 A 
ATOM      7  N3  CHE B   08     18.001  67.577   8.548  0.00  0.00    -0.327 N 
ATOM      8  C18 CHE B   08     17.585  66.356   9.162  0.00  0.00    +0.124 C 
ENDROOT
BRANCH   6   9
ATOM      9  C11 CHE B   08     20.109  67.391   7.910  0.00  0.00    +0.004 A 
ATOM     10  C12 CHE B   08     18.995  67.813   9.691  0.00  0.00    +0.014 A 
ATOM     11  C13 CHE B   08     17.254  68.413  12.278  0.00  0.00    +0.050 A 
ATOM     12  C14 CHE B   08     17.411  68.490  12.470  0.00  0.00    +0.166 A 
ATOM     13  O1  CHE B   08     25.099  67.889   7.731  0.00  0.00    -0.453 OA
ATOM     14  C15 CHE B   08     18.877  68.721  12.694  0.00  0.00    +0.466 C 
ATOM     15  O2  CHE B   08     20.425  68.027   9.870  0.00  0.00    -0.453 OA
ATOM     16  C16 CHE B   08     17.729  68.162  11.287  0.00  0.00    +0.167 A 
ATOM     17  C17 CHE B   08     20.260  67.464   8.095  0.00  0.00    +0.059 A 
ENDBRANCH   6   9
BRANCH   5  18
ATOM     18  C5  CHE B   08     16.233  69.143   8.536  0.00  0.00    +0.091 A 
ATOM     19  C6  CHE B   08     21.714  69.363   4.128  0.00  0.00    +0.030 A 
ATOM     20  C7  CHE B   08     15.553  68.745   7.452  0.00  0.00    +0.004 A 
ATOM     21  C8  CHE B   08     21.475  69.224   3.748  0.00  0.00    +0.020 A 
ATOM     22  C9  CHE B   08     21.011  69.378   4.885  0.00  0.00    +0.111 A 
ATOM     23  N2  CHE B   08     20.470  69.488   5.901  0.00  0.00    -0.253 NA
ENDBRANCH   5  18
TORSDOF 2
ENDMDL
MODEL 2
REMARK VINA RESULT:      -8.9      2.642      4.744
REMARK  Name = dock_mp/CHEMBL2/CHEMBL268889.pdb
REMARK  2 active torsions:
REMARK  status: ('A' for Active; 'I' for Inactive)
REMARK    1  A    between atoms: C4_5  and  C5_6
REMARK    2  A    between atoms: C10_12  and  C11_13
REMARK                            x       y       z     vdW  Elec       q    Type
REMARK                         _______ _______ _______ _____ _____    ______ ____
ROOT
ATOM      1  C1  CHE B   08     16.148  66.786   7.108  0.00  0.00    +0.029 C 
ATOM      2  C2  CHE B   08     21.928  70.278   9.427  0.00  0.00    +0.076 C 
ATOM      3  C3  CHE B   08     20.098  69.709   8.854  0.00  0.00    +0.111 A 
ATOM      4  N1  CHE B   08     22.447  71.510   9.911  0.00  0.00    -0.230 NA
ATOM      5  C4  CHE B   08     19.097  69.628   8.610  0.00  0.00    +0.115 A 
ATOM      6  C10 CHE B   08     16.902  67.455   7.475  0.00  0.00    +0.078 A 
ATOM      7  N3  CHE B   08     17.854  67.654   7.744  0.00  0.00    -0.327 N 
ATOM      8  C18 CHE B   08     17.339  66.414   7.257  0.00  0.00    +0.124 C 
ENDROOT
BRANCH   6   9
ATOM      9  C11 CHE B   08     20.015  67.436   8.152  0.00  0.00    +0.004 A 
ATOM     10  C12 CHE B   08     18.720  67.721   6.469  0.00  0.00    +0.014 A 
ATOM     11  C13 CHE B   08     16.717  68.129   4.039  0.00  0.00    +0.050 A 
ATOM     12  C14 CHE B   08     16.853  68.176   3.823  0.00  0.00    +0.166 A 
ATOM     13  O1  CHE B   08     25.007  67.704   7.724  0.00  0.00    -0.453 OA
ATOM     14  C15 CHE B   08     18.292  68.310   3.415  0.00  0.00    +0.466 C 
ATOM     15  O2  CHE B   08     20.127  67.844   6.110  0.00  0.00    -0.453 OA
ATOM     16  C16 CHE B   08     17.293  67.961   4.993  0.00  0.00    +0.167 A 
ATOM     17  C17 CHE B   08     20.146  67.482   7.945  0.00  0.00    +0.059 A 
ENDBRANCH   6   9
BRANCH   5  18
ATOM     18  C5  CHE B   08     16.140  69.276   7.855  0.00  0.00    +0.091 A 
ATOM     19  C6  CHE B   08     22.131  69.346  11.545  0.00  0.00    +0.030 A 
ATOM     20  C7  CHE B   08     15.602  68.831   8.999  0.00  0.00    +0.004 A 
ATOM     21  C8  CHE B   08     21.943  69.190  11.946  0.00  0.00    +0.020 A 
ATOM     22  C9  CHE B   08     21.339  69.388  10.884  0.00  0.00    +0.111 A 
ATOM     23  N2  CHE B   08     20.674  69.537   9.950  0.00  0.00    -0.253 NA
ENDBRANCH   5  18
TORSDOF 2
ENDMDL
MODEL 3
REMARK VINA RESULT:      -8.6      3.301      5.507
REMARK  Name = dock_mp/CHEMBL2/CHEMBL268889.pdb
REMARK  2 active torsions:
REMARK  status: ('A' for Active; 'I' for Inactive)
REMARK    1  A    between atoms: C4_5  and  C5_6
REMARK    2  A    between atoms: C10_12  and  C11_13
REMARK                            x       y       z     vdW  Elec       q    Type
REMARK                         _______ _______ _______ _____ _____    ______ ____
ROOT
ATOM      1  C1  CHE B   08     16.102  66.844   4.445  0.00  0.00    +0.029 C 
ATOM      2  C2  CHE B   08     21.142  69.991   8.405  0.00  0.00    +0.076 C 
ATOM      3  C3  CHE B   08     19.440  69.347   7.573  0.00  0.00    +0.111 A 
ATOM      4  N1  CHE B   08     21.413  70.877   9.482  0.00  0.00    -0.230 NA
ATOM      5  C4  CHE B   08     18.464  69.147   7.299  0.00  0.00    +0.115 A 
ATOM      6  C10 CHE B   08     16.717  67.395   5.130  0.00  0.00    +0.078 A 
ATOM      7  N3  CHE B   08     17.621  67.666   5.486  0.00  0.00    -0.327 N 
ATOM      8  C18 CHE B   08     17.355  66.774   4.402  0.00  0.00    +0.124 C 
ENDROOT
BRANCH   6   9
ATOM      9  C11 CHE B   08     19.806  67.840   5.767  0.00  0.00    +0.004 A 
ATOM     10  C12 CHE B   08     18.360  68.378   4.280  0.00  0.00    +0.014 A 
ATOM     11  C13 CHE B   08     16.142  69.120   2.132  0.00  0.00    +0.050 A 
ATOM     12  C14 CHE B   08     16.250  69.266   1.946  0.00  0.00    +0.166 A 
ATOM     13  O1  CHE B   08     24.587  69.336   5.468  0.00  0.00    -0.453 OA
ATOM     14  C15 CHE B   08     17.595  69.844   1.611  0.00  0.00    +0.466 C 
ATOM     15  O2  CHE B   08     19.680  68.922   3.989  0.00  0.00    -0.453 OA
ATOM     16  C16 CHE B   08     16.810  68.775   2.972  0.00  0.00    +0.167 A 
ATOM     17  C17 CHE B   08     19.909  67.981   5.588  0.00  0.00    +0.059 A 
ENDBRANCH   6   9
BRANCH   5  18
ATOM     18  C5  CHE B   08     15.602  68.480   6.403  0.00  0.00    +0.091 A 
ATOM     19  C6  CHE B   08     21.836  68.144   9.650  0.00  0.00    +0.030 A 
ATOM     20  C7  CHE B   08     15.340  67.359   7.087  0.00  0.00    +0.004 A 
ATOM     21  C8  CHE B   08     21.744  67.750   9.890  0.00  0.00    +0.020 A 
ATOM     22  C9  CHE B   08     20.976  68.323   9.105  0.00  0.00    +0.111 A 
ATOM     23  N2  CHE B   08     20.179  68.771   8.398  0.00  0.00    -0.253 NA
ENDBRANCH   5  18
TORSDOF 2
ENDMDL
MODEL 4
REMARK VINA RESULT:      -7.9      3.357      6.049
REMARK  Name = dock_mp/CHEMBL2/CHEMBL268889.pdb
REMARK  2 active torsions:
REMARK  status: ('A' for Active; 'I' for Inactive)
REMARK    1  A    between atoms: C4_5  and  C5_6
REMARK    2  A    between atoms: C10_12  and  C11_13
REMARK                            x       y       z     vdW  Elec       q    Type
REMARK                         _______ _______ _______ _____ _____    ______ ____
ROOT
ATOM      1  C1  CHE B   08     23.040  70.360  11.382  0.00  0.00    +0.029 C 
ATOM      2  C2  CHE B   08     17.763  67.716   7.363  0.00  0.00    +0.076 C 
ATOM      3  C3  CHE B   08     19.149  68.087   8.759  0.00  0.00    +0.111 A 
ATOM      4  N1  CHE B   08     16.801  66.681   7.212  0.00  0.00    -0.230 NA
ATOM      5  C4  CHE B   08     19.784  68.089   9.574  0.00  0.00    +0.115 A 
ATOM      6  C10 CHE B   08     22.237  69.829  10.907  0.00  0.00    +0.078 A 
ATOM      7  N3  CHE B   08     21.569  69.720  10.159  0.00  0.00    -0.327 N 
ATOM      8  C18 CHE B   08     22.533  70.764  10.306  0.00  0.00    +0.124 C 
ENDROOT
BRANCH   6   9
ATOM      9  C11 CHE B   08     20.407  70.057   8.310  0.00  0.00    +0.004 A 
ATOM     10  C12 CHE B   08     22.355  69.361   8.869  0.00  0.00    +0.014 A 
ATOM     11  C13 CHE B   08     25.221  68.359   9.798  0.00  0.00    +0.050 A 
ATOM     12  C14 CHE B   08     25.349  68.264   9.593  0.00  0.00    +0.166 A 
ATOM     13  O1  CHE B   08     18.754  69.773   3.581  0.00  0.00    -0.453 OA
ATOM     14  C15 CHE B   08     25.114  68.060   8.124  0.00  0.00    +0.466 C 
ATOM     15  O2  CHE B   08     22.090  69.179   7.447  0.00  0.00    -0.453 OA
ATOM     16  C16 CHE B   08     24.181  68.757   9.625  0.00  0.00    +0.167 A 
ATOM     17  C17 CHE B   08     20.530  69.965   8.112  0.00  0.00    +0.059 A 
ENDBRANCH   6   9
BRANCH   5  18
ATOM     18  C5  CHE B   08     21.719  68.195  11.956  0.00  0.00    +0.091 A 
ATOM     19  C6  CHE B   08     16.061  69.198   7.895  0.00  0.00    +0.030 A 
ATOM     20  C7  CHE B   08     21.043  68.935  12.845  0.00  0.00    +0.004 A 
ATOM     21  C8  CHE B   08     15.823  69.457   8.207  0.00  0.00    +0.020 A 
ATOM     22  C9  CHE B   08     16.949  68.968   8.371  0.00  0.00    +0.111 A 
ATOM     23  N2  CHE B   08     17.998  68.561   8.635  0.00  0.00    -0.253 NA
ENDBRANCH   5  18
TORSDOF 2
ENDMDL
MODEL 5
REMARK VINA RESULT:      -7.9      3.301      6.037
REMARK  Name = dock_mp/CHEMBL2/CHEMBL268889.pdb
REMARK  2 active torsions:
REMARK  status: ('A' for Active; 'I' for Inactive)
REMARK    1  A    between atoms: C4_5  and  C5_6
REMARK    2  A    between atoms: C10_12  and  C11_13
REMARK                            x       y       z     vdW  Elec       q    Type
REMARK                         _______ _______ _______ _____ _____    ______ ____
ROOT
ATOM      1  C1  CHE B   08     23.284  67.644  12.319  0.00  0.00    +0.029 C 
ATOM      2  C2  CHE B   08     16.986  68.333   9.025  0.00  0.00    +0.076 C 
ATOM      3  C3  CHE B   08     18.514  68.300  10.317  0.00  0.00    +0.111 A 
ATOM      4  N1  CHE B   08     15.622  68.713   9.155  0.00  0.00    -0.230 NA
ATOM      5  C4  CHE B   08     19.149  68.362  11.130  0.00  0.00    +0.115 A 
ATOM      6  C10 CHE B   08     22.276  67.808  11.988  0.00  0.00    +0.078 A 
ATOM      7  N3  CHE B   08     21.567  67.791  11.272  0.00  0.00    -0.327 N 
ATOM      8  C18 CHE B   08     22.936  67.408  11.135  0.00  0.00    +0.124 C 
ENDROOT
BRANCH   6   9
ATOM      9  C11 CHE B   08     20.538  67.522   9.335  0.00  0.00    +0.004 A 
ATOM     10  C12 CHE B   08     21.868  68.923  10.263  0.00  0.00    +0.014 A 
ATOM     11  C13 CHE B   08     23.850  70.930  11.721  0.00  0.00    +0.050 A 
ATOM     12  C14 CHE B   08     23.880  71.142  11.574  0.00  0.00    +0.166 A 
ATOM     13  O1  CHE B   08     18.405  68.450   4.888  0.00  0.00    -0.453 OA
ATOM     14  C15 CHE B   08     23.388  71.669  10.257  0.00  0.00    +0.466 C 
ATOM     15  O2  CHE B   08     21.370  69.401   8.980  0.00  0.00    -0.453 OA
ATOM     16  C16 CHE B   08     23.169  70.119  11.333  0.00  0.00    +0.167 A 
ATOM     17  C17 CHE B   08     20.567  67.726   9.193  0.00  0.00    +0.059 A 
ENDBRANCH   6   9
BRANCH   5  18
ATOM     18  C5  CHE B   08     21.123  68.505  13.479  0.00  0.00    +0.091 A 
ATOM     19  C6  CHE B   08     16.351  66.105   8.898  0.00  0.00    +0.030 A 
ATOM     20  C7  CHE B   08     21.024  67.280  14.013  0.00  0.00    +0.004 A 
ATOM     21  C8  CHE B   08     16.316  65.675   9.085  0.00  0.00    +0.020 A 
ATOM     22  C9  CHE B   08     17.044  66.592   9.490  0.00  0.00    +0.111 A 
ATOM     23  N2  CHE B   08     17.761  67.371   9.954  0.00  0.00    -0.253 NA
ENDBRANCH   5  18
TORSDOF 2
ENDMDL
MODEL 6
REMARK VINA RESULT:      -7.9      3.118      4.643
REMARK  Name = dock_mp/CHEMBL2/CHEMBL268889.pdb
REMARK  2 active torsions:
REMARK  status: ('A' for Active; 'I' for Inactive)
REMARK    1  A    between atoms: C4_5  and  C5_6
REMARK    2  A    between atoms: C10_12  and  C11_13
REMARK                            x       y       z     vdW  Elec       q    Type
REMARK                         _______ _______ _______ _____ _____    ______ ____
ROOT
ATOM      1  C1  CHE B   08     18.946  67.709   5.784  0.00  0.00    +0.029 C 
ATOM      2  C2  CHE B   08     23.058  70.157  11.085  0.00  0.00    +0.076 C 
ATOM      3  C3  CHE B   08     21.954  69.905   9.434  0.00  0.00    +0.111 A 
ATOM      4  N1  CHE B   08     23.767  71.271  11.609  0.00  0.00    -0.230 NA
ATOM      5  C4  CHE B   08     21.436  69.992   8.544  0.00  0.00    +0.115 A 
ATOM      6  C10 CHE B   08     19.562  68.237   6.487  0.00  0.00    +0.078 A 
ATOM      7  N3  CHE B   08     20.099  68.273   7.340  0.00  0.00    -0.327 N 
ATOM      8  C18 CHE B   08     19.389  67.150   6.818  0.00  0.00    +0.124 C 
ENDROOT
BRANCH   6   9
ATOM      9  C11 CHE B   08     21.072  67.703   9.240  0.00  0.00    +0.004 A 
ATOM     10  C12 CHE B   08     19.103  68.164   8.529  0.00  0.00    +0.014 A 
ATOM     11  C13 CHE B   08     16.225  68.847   7.375  0.00  0.00    +0.050 A 
ATOM     12  C14 CHE B   08     16.057  68.865   7.572  0.00  0.00    +0.166 A 
ATOM     13  O1  CHE B   08     22.045  67.103  14.126  0.00  0.00    -0.453 OA
ATOM     14  C15 CHE B   08     16.065  68.741   9.068  0.00  0.00    +0.466 C 
ATOM     15  O2  CHE B   08     19.150  68.035   9.980  0.00  0.00    -0.453 OA
ATOM     16  C16 CHE B   08     17.297  68.607   7.628  0.00  0.00    +0.167 A 
ATOM     17  C17 CHE B   08     20.910  67.720   9.430  0.00  0.00    +0.059 A 
ENDBRANCH   6   9
BRANCH   5  18
ATOM     18  C5  CHE B   08     19.865  70.138   5.909  0.00  0.00    +0.091 A 
ATOM     19  C6  CHE B   08     25.045  69.061  10.549  0.00  0.00    +0.030 A 
ATOM     20  C7  CHE B   08     20.762  69.703   5.014  0.00  0.00    +0.004 A 
ATOM     21  C8  CHE B   08     25.359  68.908  10.235  0.00  0.00    +0.020 A 
ATOM     22  C9  CHE B   08     24.200  69.266   9.991  0.00  0.00    +0.111 A 
ATOM     23  N2  CHE B   08     23.140  69.575   9.647  0.00  0.00    -0.253 NA
ENDBRANCH   5  18
TORSDOF 2
ENDMDL
MODEL 7
REMARK VINA RESULT:      -7.7      2.847      5.292
REMARK  Name = dock_mp/CHEMBL2/CHEMBL268889.pdb
REMARK  2 active torsions:
REMARK  status: ('A' for Active; 'I' for Inactive)
REMARK    1  A    between atoms: C4_5  and  C5_6
REMARK    2  A    between atoms: C10_12  and  C11_13
REMARK                            x       y       z     vdW  Elec       q    Type
REMARK                         _______ _______ _______ _____ _____    ______ ____
ROOT
ATOM      1  C1  CHE B   08     16.684  69.401   7.676  0.00  0.00    +0.029 C 
ATOM      2  C2  CHE B   08     22.972  67.382  10.392  0.00  0.00    +0.076 C 
ATOM      3  C3  CHE B   08     21.083  67.513   9.744  0.00  0.00    +0.111 A 
ATOM      4  N1  CHE B   08     23.711  66.332  11.000  0.00  0.00    -0.230 NA
ATOM      5  C4  CHE B   08     20.094  67.367   9.482  0.00  0.00    +0.115 A 
ATOM      6  C10 CHE B   08     17.545  68.935   8.115  0.00  0.00    +0.078 A 
ATOM      7  N3  CHE B   08     18.508  68.959   8.413  0.00  0.00    -0.327 N 
ATOM      8  C18 CHE B   08     17.770  70.019   7.802  0.00  0.00    +0.124 C 
ENDROOT
BRANCH   6   9
ATOM      9  C11 CHE B   08     20.568  69.647   8.824  0.00  0.00    +0.004 A 
ATOM     10  C12 CHE B   08     19.396  69.029   7.139  0.00  0.00    +0.014 A 
ATOM     11  C13 CHE B   08     17.573  68.112   4.707  0.00  0.00    +0.050 A 
ATOM     12  C14 CHE B   08     17.720  68.087   4.495  0.00  0.00    +0.166 A 
ATOM     13  O1  CHE B   08     25.509  70.441   8.459  0.00  0.00    -0.453 OA
ATOM     14  C15 CHE B   08     19.162  68.250   4.107  0.00  0.00    +0.466 C 
ATOM     15  O2  CHE B   08     20.803  69.198   6.801  0.00  0.00    -0.453 OA
ATOM     16  C16 CHE B   08     18.082  68.434   5.659  0.00  0.00    +0.167 A 
ATOM     17  C17 CHE B   08     20.710  69.623   8.620  0.00  0.00    +0.059 A 
ENDBRANCH   6   9
BRANCH   5  18
ATOM     18  C5  CHE B   08     17.152  67.041   8.662  0.00  0.00    +0.091 A 
ATOM     19  C6  CHE B   08     22.918  68.617  12.374  0.00  0.00    +0.030 A 
ATOM     20  C7  CHE B   08     16.500  67.525   9.728  0.00  0.00    +0.004 A 
ATOM     21  C8  CHE B   08     22.690  68.787  12.748  0.00  0.00    +0.020 A 
ATOM     22  C9  CHE B   08     22.171  68.335  11.719  0.00  0.00    +0.111 A 
ATOM     23  N2  CHE B   08     21.579  67.938  10.809  0.00  0.00    -0.253 NA
ENDBRANCH   5  18
TORSDOF 2
ENDMDL
MODEL 8
REMARK VINA RESULT:      -7.5      3.299      6.317
REMARK  Name = dock_mp/CHEMBL2/CHEMBL268889.pdb
REMARK  2 active torsions:
REMARK  status: ('A' for Active; 'I' for Inactive)
REMARK    1  A    between atoms: C4_5  and  C5_6
REMARK    2  A    between atoms: C10_12  and  C11_13
REMARK                            x       y       z     vdW  Elec       q    Type
REMARK                         _______ _______ _______ _____ _____    ______ ____
ROOT
ATOM      1  C1  CHE B   08     23.092  70.978   9.567  0.00  0.00    +0.029 C 
ATOM      2  C2  CHE B   08     17.452  66.605   9.819  0.00  0.00    +0.076 C 
ATOM      3  C3  CHE B   08     19.095  67.637   9.328  0.00  0.00    +0.111 A 
ATOM      4  N1  CHE B   08     16.701  65.609   9.139  0.00  0.00    -0.230 NA
ATOM      5  C4  CHE B   08     19.932  68.050   8.884  0.00  0.00    +0.115 A 
ATOM      6  C10 CHE B   08     22.299  70.267   9.436  0.00  0.00    +0.078 A 
ATOM      7  N3  CHE B   08     21.471  69.794   9.766  0.00  0.00    -0.327 N 
ATOM      8  C18 CHE B   08     22.222  70.796  10.454  0.00  0.00    +0.124 C 
ENDROOT
BRANCH   6   9
ATOM      9  C11 CHE B   08     19.770  69.163  11.027  0.00  0.00    +0.004 A 
ATOM     10  C12 CHE B   08     21.895  68.891  10.963  0.00  0.00    +0.014 A 
ATOM     11  C13 CHE B   08     25.048  68.563  10.789  0.00  0.00    +0.050 A 
ATOM     12  C14 CHE B   08     25.125  68.386  10.964  0.00  0.00    +0.166 A 
ATOM     13  O1  CHE B   08     16.873  66.601  14.225  0.00  0.00    -0.453 OA
ATOM     14  C15 CHE B   08     24.508  67.500  12.007  0.00  0.00    +0.466 C 
ATOM     15  O2  CHE B   08     21.260  68.046  11.965  0.00  0.00    -0.453 OA
ATOM     16  C16 CHE B   08     23.946  68.790  10.731  0.00  0.00    +0.167 A 
ATOM     17  C17 CHE B   08     19.844  68.993  11.195  0.00  0.00    +0.059 A 
ENDBRANCH   6   9
BRANCH   5  18
ATOM     18  C5  CHE B   08     22.433  69.343   7.656  0.00  0.00    +0.091 A 
ATOM     19  C6  CHE B   08     15.734  68.098   9.414  0.00  0.00    +0.030 A 
ATOM     20  C7  CHE B   08     21.922  70.393   7.000  0.00  0.00    +0.004 A 
ATOM     21  C8  CHE B   08     15.555  68.466   9.183  0.00  0.00    +0.020 A 
ATOM     22  C9  CHE B   08     16.751  68.152   9.239  0.00  0.00    +0.111 A 
ATOM     23  N2  CHE B   08     17.890  67.956   9.222  0.00  0.00    -0.253 NA
ENDBRANCH   5  18
TORSDOF 2
ENDMDL
MODEL 9
REMARK VINA RESULT:      -7.4      8.876     10.811
REMARK  Name = dock_mp/CHEMBL2/CHEMBL268889.pdb
REMARK  2 active torsions:
REMARK  status: ('A' for Active; 'I' for Inactive)
REMARK    1  A    between atoms: C4_5  and  C5_6
REMARK    2  A    between atoms: C10_12  and  C11_13
REMARK                            x       y       z     vdW  Elec       q    Type
REMARK                         _______ _______ _______ _____ _____    ______ ____
ROOT
ATOM      1  C1  CHE B   08     24.927  68.790  -0.080  0.00  0.00    +0.029 C 
ATOM      2  C2  CHE B   08     26.293  75.170   2.821  0.00  0.00    +0.076 C 
ATOM      3  C3  CHE B   08     25.574  73.367   2.332  0.00  0.00    +0.111 A 
ATOM      4  N1  CHE B   08     25.926  76.116   3.816  0.00  0.00    -0.230 NA
ATOM      5  C4  CHE B   08     25.058  72.476   2.249  0.00  0.00    +0.115 A 
ATOM      6  C10 CHE B   08     24.991  69.709   0.470  0.00  0.00    +0.078 A 
ATOM      7  N3  CHE B   08     25.417  70.606   0.646  0.00  0.00    -0.327 N 
ATOM      8  C18 CHE B   08     25.790  69.660  -0.356  0.00  0.00    +0.124 C 
ENDROOT
BRANCH   6   9
ATOM      9  C11 CHE B   08     26.739  72.371   0.511  0.00  0.00    +0.004 A 
ATOM     10  C12 CHE B   08     26.800  70.375   1.288  0.00  0.00    +0.014 A 
ATOM     11  C13 CHE B   08     26.797  67.398   2.392  0.00  0.00    +0.050 A 
ATOM     12  C14 CHE B   08     27.012  67.359   2.533  0.00  0.00    +0.166 A 
ATOM     13  O1  CHE B   08     30.396  75.682   1.435  0.00  0.00    -0.453 OA
ATOM     14  C15 CHE B   08     28.225  68.133   2.960  0.00  0.00    +0.466 C 
ATOM     15  O2  CHE B   08     27.965  71.158   1.683  0.00  0.00    -0.453 OA
ATOM     16  C16 CHE B   08     26.655  68.416   1.930  0.00  0.00    +0.167 A 
ATOM     17  C17 CHE B   08     26.946  72.334   0.646  0.00  0.00    +0.059 A 
ENDBRANCH   6   9
BRANCH   5  18
ATOM     18  C5  CHE B   08     23.595  69.796   1.913  0.00  0.00    +0.091 A 
ATOM     19  C6  CHE B   08     25.318  76.591   1.298  0.00  0.00    +0.030 A 
ATOM     20  C7  CHE B   08     22.592  70.117   1.085  0.00  0.00    +0.004 A 
ATOM     21  C8  CHE B   08     24.966  76.704   1.008  0.00  0.00    +0.020 A 
ATOM     22  C9  CHE B   08     25.190  75.582   1.483  0.00  0.00    +0.111 A 
ATOM     23  N2  CHE B   08     25.301  74.497   1.866  0.00  0.00    -0.253 NA
ENDBRANCH   5  18
TORSDOF 2
ENDMDL
MODEL 10
REMARK VINA RESULT:      -7.4      3.288      5.091
REMARK  Name = dock_mp/CHEMBL2/CHEMBL268889.pdb
REMARK  2 active torsions:
REMARK  status: ('A' for Active; 'I' for Inactive)
REMARK    1  A    between atoms: C4_5  and  C5_6
REMARK    2  A    between atoms: C10_12  and  C11_13
REMARK                            x       y       z     vdW  Elec       q    Type
REMARK                         _______ _______ _______ _____ _____    ______ ____
ROOT
ATOM      1  C1  CHE B   08     17.750  68.890   7.062  0.00  0.00    +0.029 C 
ATOM      2  C2  CHE B   08     22.992  67.781  11.782  0.00  0.00    +0.076 C 
ATOM      3  C3  CHE B   08     21.787  67.822  10.185  0.00  0.00    +0.111 A 
ATOM      4  N1  CHE B   08     24.241  67.151  12.031  0.00  0.00    -0.230 NA
ATOM      5  C4  CHE B   08     21.324  67.711   9.268  0.00  0.00    +0.115 A 
ATOM      6  C10 CHE B   08     18.616  68.622   7.637  0.00  0.00    +0.078 A 
ATOM      7  N3  CHE B   08     19.160  68.657   8.486  0.00  0.00    -0.327 N 
ATOM      8  C18 CHE B   08     17.904  69.293   8.242  0.00  0.00    +0.124 C 
ENDROOT
BRANCH   6   9
ATOM      9  C11 CHE B   08     19.826  69.124  10.540  0.00  0.00    +0.004 A 
ATOM     10  C12 CHE B   08     18.302  67.950   9.595  0.00  0.00    +0.014 A 
ATOM     11  C13 CHE B   08     16.072  66.254   8.101  0.00  0.00    +0.050 A 
ATOM     12  C14 CHE B   08     15.946  66.107   8.275  0.00  0.00    +0.166 A 
ATOM     13  O1  CHE B   08     20.665  68.885  15.482  0.00  0.00    -0.453 OA
ATOM     14  C15 CHE B   08     15.981  65.842   9.753  0.00  0.00    +0.466 C 
ATOM     15  O2  CHE B   08     18.366  67.719  11.033  0.00  0.00    -0.453 OA
ATOM     16  C16 CHE B   08     16.899  66.917   8.484  0.00  0.00    +0.167 A 
ATOM     17  C17 CHE B   08     19.705  68.982  10.707  0.00  0.00    +0.059 A 
ENDBRANCH   6   9
BRANCH   5  18
ATOM     18  C5  CHE B   08     19.860  67.449   6.580  0.00  0.00    +0.091 A 
ATOM     19  C6  CHE B   08     23.930  69.928  11.758  0.00  0.00    +0.030 A 
ATOM     20  C7  CHE B   08     20.248  68.556   5.932  0.00  0.00    +0.004 A 
ATOM     21  C8  CHE B   08     24.066  70.316  11.531  0.00  0.00    +0.020 A 
ATOM     22  C9  CHE B   08     23.303  69.444  11.094  0.00  0.00    +0.111 A 
ATOM     23  N2  CHE B   08     22.584  68.696  10.586  0.00  0.00    -0.253 NA
ENDBRANCH   5  18
TORSDOF 2
ENDMDL
