MODEL 1
REMARK VINA RESULT:     -10.2      0.000      0.000
REMARK  Name = dock_mp/CHEMBL2/CHEMBL261454.pdb
REMARK  2 active torsions:
REMARK  status: ('A' for Active; 'I' for Inactive)
REMARK    1  A    between atoms: C4_4  and  C5_5
REMARK    2  A    between atoms: C7_9  and  C8_10
REMARK                            x       y       z     vdW  Elec       q    Type
REMARK                         _______ _______ _______ _____ _____    ______ ____
ROOT
ATOM      1  C5  CHE B   04     17.535  68.159   2.797  0.00  0.00    +0.118 A 
ATOM      2  N1  CHE B   04     18.911  69.074   6.499  0.00  0.00    -0.172 NA
ATOM      3  N2  CHE B   04     17.527  68.153   2.800  0.00  0.00    -0.284 N 
ATOM      4  C6  CHE B   04     18.564  68.677  11.801  0.00  0.00    +0.114 A 
ATOM      5  C7  CHE B   04     17.036  67.732   5.035  0.00  0.00    +0.029 A 
ATOM      6  H4  CHE B   04     19.056  69.127   8.527  0.00  0.00    +0.188 HD
ENDROOT
BRANCH   5   7
ATOM      7  C8  CHE B   04     17.703  68.035  12.082  0.00  0.00    -0.004 A 
ATOM      8  C9  CHE B   04     16.083  66.896   5.364  0.00  0.00    +0.029 A 
ATOM      9  C10 CHE B   04     15.757  66.531   7.555  0.00  0.00    +0.112 A 
ATOM     10  N3  CHE B   04     14.326  65.437   3.891  0.00  0.00    -0.255 NA
ATOM     11  C11 CHE B   04     15.522  66.284   8.676  0.00  0.00    +0.072 A 
ATOM     12  C12 CHE B   04     14.054  65.159   5.024  0.00  0.00    +0.028 A 
ATOM     13  C13 CHE B   04     14.401  65.422   5.944  0.00  0.00    +0.002 A 
ATOM     14  C14 CHE B   04     14.942  65.937   4.718  0.00  0.00    +0.001 A 
ATOM     15  C15 CHE B   04     16.820  67.341  10.307  0.00  0.00    +0.010 A 
ATOM     16  C16 CHE B   04     16.890  67.363  11.322  0.00  0.00    +0.008 A 
ENDBRANCH   5   7
BRANCH   1  20
ATOM     17  C1  CHE B   04     19.349  69.351   4.296  0.00  0.00    +0.020 A 
ATOM     18  C2  CHE B   04     19.872  69.703   5.165  0.00  0.00    +0.004 A 
ATOM     19  C3  CHE B   04     19.792  69.690   7.252  0.00  0.00    +0.030 A 
ATOM     20  C4  CHE B   04     18.386  68.738   4.595  0.00  0.00    +0.091 A 
ATOM     21  N4  CHE B   04     18.518  68.860   6.616  0.00  0.00    -0.253 NA
ATOM     22  C17 CHE B   04     18.352  68.698   3.575  0.00  0.00    +0.111 A 
ENDBRANCH   1  20
TORSDOF 2
ENDMDL
MODEL 2
REMARK VINA RESULT:     -10.2      1.619      4.798
REMARK  Name = dock_mp/CHEMBL2/CHEMBL261454.pdb
REMARK  2 active torsions:
REMARK  status: ('A' for Active; 'I' for Inactive)
REMARK    1  A    between atoms: C4_4  and  C5_5
REMARK    2  A    between atoms: C7_9  and  C8_10
REMARK                            x       y       z     vdW  Elec       q    Type
REMARK                         _______ _______ _______ _____ _____    ______ ____
ROOT
ATOM      1  C5  CHE B   04     15.037  66.370   4.160  0.00  0.00    +0.118 A 
ATOM      2  N1  CHE B   04     17.072  67.045   7.600  0.00  0.00    -0.172 NA
ATOM      3  N2  CHE B   04     15.043  66.376   4.153  0.00  0.00    -0.284 N 
ATOM      4  C6  CHE B   04     21.028  69.434  10.251  0.00  0.00    +0.114 A 
ATOM      5  C7  CHE B   04     16.865  67.595   4.933  0.00  0.00    +0.029 A 
ATOM      6  H4  CHE B   04     18.461  67.789   8.887  0.00  0.00    +0.188 HD
ENDROOT
BRANCH   5   7
ATOM      7  C8  CHE B   04     21.616  70.078   9.564  0.00  0.00    -0.004 A 
ATOM      8  C9  CHE B   04     17.624  68.267   4.103  0.00  0.00    +0.029 A 
ATOM      9  C10 CHE B   04     19.391  69.340   4.977  0.00  0.00    +0.112 A 
ATOM     10  N3  CHE B   04     17.512  68.662   1.416  0.00  0.00    -0.255 NA
ATOM     11  C11 CHE B   04     20.333  69.928   5.351  0.00  0.00    +0.072 A 
ATOM     12  C12 CHE B   04     18.483  69.275   1.758  0.00  0.00    +0.028 A 
ATOM     13  C13 CHE B   04     18.961  69.452   2.639  0.00  0.00    +0.002 A 
ATOM     14  C14 CHE B   04     17.776  68.649   2.531  0.00  0.00    +0.001 A 
ATOM     15  C15 CHE B   04     20.810  69.857   7.638  0.00  0.00    +0.010 A 
ATOM     16  C16 CHE B   04     21.508  70.229   8.278  0.00  0.00    +0.008 A 
ENDBRANCH   5   7
BRANCH   1  20
ATOM     17  C1  CHE B   04     15.251  65.997   6.762  0.00  0.00    +0.020 A 
ATOM     18  C2  CHE B   04     15.633  66.045   7.764  0.00  0.00    +0.004 A 
ATOM     19  C3  CHE B   04     17.209  66.830   8.887  0.00  0.00    +0.030 A 
ATOM     20  C4  CHE B   04     15.944  66.586   6.010  0.00  0.00    +0.091 A 
ATOM     21  N4  CHE B   04     17.367  67.240   7.299  0.00  0.00    -0.253 NA
ATOM     22  C17 CHE B   04     15.209  66.239   5.391  0.00  0.00    +0.111 A 
ENDBRANCH   1  20
TORSDOF 2
ENDMDL
MODEL 3
REMARK VINA RESULT:      -9.8      2.252      6.303
REMARK  Name = dock_mp/CHEMBL2/CHEMBL261454.pdb
REMARK  2 active torsions:
REMARK  status: ('A' for Active; 'I' for Inactive)
REMARK    1  A    between atoms: C4_4  and  C5_5
REMARK    2  A    between atoms: C7_9  and  C8_10
REMARK                            x       y       z     vdW  Elec       q    Type
REMARK                         _______ _______ _______ _____ _____    ______ ____
ROOT
ATOM      1  C5  CHE B   04     14.968  67.075   5.796  0.00  0.00    +0.118 A 
ATOM      2  N1  CHE B   04     17.485  68.270   2.851  0.00  0.00    -0.172 NA
ATOM      3  N2  CHE B   04     14.974  67.075   5.803  0.00  0.00    -0.284 N 
ATOM      4  C6  CHE B   04     22.305  69.872   1.241  0.00  0.00    +0.114 A 
ATOM      5  C7  CHE B   04     17.187  67.735   5.512  0.00  0.00    +0.029 A 
ATOM      6  H4  CHE B   04     19.183  68.896   1.922  0.00  0.00    +0.188 HD
ENDROOT
BRANCH   5   7
ATOM      7  C8  CHE B   04     23.002  69.917   2.104  0.00  0.00    -0.004 A 
ATOM      8  C9  CHE B   04     17.916  68.067   6.549  0.00  0.00    +0.029 A 
ATOM      9  C10 CHE B   04     19.971  68.870   6.136  0.00  0.00    +0.112 A 
ATOM     10  N3  CHE B   04     17.451  67.989   9.226  0.00  0.00    -0.255 NA
ATOM     11  C11 CHE B   04     21.054  69.297   6.009  0.00  0.00    +0.072 A 
ATOM     12  C12 CHE B   04     18.562  68.429   9.138  0.00  0.00    +0.028 A 
ATOM     13  C13 CHE B   04     19.201  68.653   8.377  0.00  0.00    +0.002 A 
ATOM     14  C14 CHE B   04     17.884  68.120   8.172  0.00  0.00    +0.001 A 
ATOM     15  C15 CHE B   04     21.869  69.535   3.831  0.00  0.00    +0.010 A 
ATOM     16  C16 CHE B   04     22.719  69.856   3.371  0.00  0.00    +0.008 A 
ENDBRANCH   5   7
BRANCH   1  20
ATOM     17  C1  CHE B   04     15.306  67.990   3.345  0.00  0.00    +0.020 A 
ATOM     18  C2  CHE B   04     15.790  68.318   2.444  0.00  0.00    +0.004 A 
ATOM     19  C3  CHE B   04     17.678  68.591   1.596  0.00  0.00    +0.030 A 
ATOM     20  C4  CHE B   04     16.095  67.664   4.160  0.00  0.00    +0.091 A 
ATOM     21  N4  CHE B   04     17.809  68.009   3.132  0.00  0.00    -0.253 NA
ATOM     22  C17 CHE B   04     15.211  67.502   4.646  0.00  0.00    +0.111 A 
ENDBRANCH   1  20
TORSDOF 2
ENDMDL
MODEL 4
REMARK VINA RESULT:      -9.8      2.168      3.624
REMARK  Name = dock_mp/CHEMBL2/CHEMBL261454.pdb
REMARK  2 active torsions:
REMARK  status: ('A' for Active; 'I' for Inactive)
REMARK    1  A    between atoms: C4_4  and  C5_5
REMARK    2  A    between atoms: C7_9  and  C8_10
REMARK                            x       y       z     vdW  Elec       q    Type
REMARK                         _______ _______ _______ _____ _____    ______ ____
ROOT
ATOM      1  C5  CHE B   04     15.404  67.455   3.864  0.00  0.00    +0.118 A 
ATOM      2  N1  CHE B   04     19.250  68.582   4.478  0.00  0.00    -0.172 NA
ATOM      3  N2  CHE B   04     15.401  67.453   3.874  0.00  0.00    -0.284 N 
ATOM      4  C6  CHE B   04     23.364  69.427   7.756  0.00  0.00    +0.114 A 
ATOM      5  C7  CHE B   04     16.929  67.695   5.613  0.00  0.00    +0.029 A 
ATOM      6  H4  CHE B   04     20.990  68.997   5.444  0.00  0.00    +0.188 HD
ENDROOT
BRANCH   5   7
ATOM      7  C8  CHE B   04     23.075  69.193   8.801  0.00  0.00    -0.004 A 
ATOM      8  C9  CHE B   04     16.548  67.561   6.859  0.00  0.00    +0.029 A 
ATOM      9  C10 CHE B   04     18.097  67.916   8.444  0.00  0.00    +0.112 A 
ATOM     10  N3  CHE B   04     14.165  66.912   7.994  0.00  0.00    -0.255 NA
ATOM     11  C11 CHE B   04     18.843  68.083   9.331  0.00  0.00    +0.072 A 
ATOM     12  C12 CHE B   04     14.896  67.074   8.929  0.00  0.00    +0.028 A 
ATOM     13  C13 CHE B   04     15.875  67.324   9.056  0.00  0.00    +0.002 A 
ATOM     14  C14 CHE B   04     15.251  67.199   7.769  0.00  0.00    +0.001 A 
ATOM     15  C15 CHE B   04     21.042  68.667   8.795  0.00  0.00    +0.010 A 
ATOM     16  C16 CHE B   04     21.910  68.878   9.283  0.00  0.00    +0.008 A 
ENDBRANCH   5   7
BRANCH   1  20
ATOM     17  C1  CHE B   04     17.523  68.810   3.071  0.00  0.00    +0.020 A 
ATOM     18  C2  CHE B   04     18.527  69.190   3.034  0.00  0.00    +0.004 A 
ATOM     19  C3  CHE B   04     20.367  69.076   4.014  0.00  0.00    +0.030 A 
ATOM     20  C4  CHE B   04     17.381  68.063   3.973  0.00  0.00    +0.091 A 
ATOM     21  N4  CHE B   04     19.253  68.113   4.754  0.00  0.00    -0.253 NA
ATOM     22  C17 CHE B   04     16.450  68.063   3.552  0.00  0.00    +0.111 A 
ENDBRANCH   1  20
TORSDOF 2
ENDMDL
