MODEL 1
REMARK VINA RESULT:      -9.4      0.000      0.000
REMARK  Name = dock_mp/CHEMBL2/CHEMBL205158.pdb
REMARK  7 active torsions:
REMARK  status: ('A' for Active; 'I' for Inactive)
REMARK    1  A    between atoms: N1_3  and  C3_4
REMARK    2  A    between atoms: C3_4  and  C4_5
REMARK    3  A    between atoms: C4_5  and  O1_6
REMARK    4  A    between atoms: O1_6  and  C5_7
REMARK    5  A    between atoms: C8_10  and  C9_11
REMARK    6  A    between atoms: C11_13  and  C12_14
REMARK    7  A    between atoms: C14_18  and  C15_19
REMARK                            x       y       z     vdW  Elec       q    Type
REMARK                         _______ _______ _______ _____ _____    ______ ____
ROOT
ATOM      1  C9  CHE B   01     19.204  69.244   7.804  0.00  0.00    +0.072 A 
ATOM      2  C10 CHE B   01     16.137  68.351   7.777  0.00  0.00    +0.037 A 
ATOM      3  C11 CHE B   01     14.866  67.806   6.925  0.00  0.00    -0.011 A 
ATOM      4  C20 CHE B   01     21.278  69.147   4.451  0.00  0.00    +0.028 A 
ATOM      5  C21 CHE B   01     17.885  68.650   6.785  0.00  0.00    +0.112 A 
ATOM      6  N5  CHE B   01     18.219  68.983   7.921  0.00  0.00    -0.255 NA
ENDROOT
BRANCH   1  10
ATOM      7  C5  CHE B   01     23.351  70.138  10.480  0.00  0.00    +0.120 A 
ATOM      8  C6  CHE B   01     17.439  66.870  12.348  0.00  0.00    +0.046 A 
ATOM      9  C7  CHE B   01     17.715  67.515  10.857  0.00  0.00    +0.013 A 
ATOM     10  C8  CHE B   01     21.422  70.012   8.410  0.00  0.00    +0.001 A 
ATOM     11  C22 CHE B   01     22.375  70.445   8.376  0.00  0.00    +0.013 A 
ATOM     12  C23 CHE B   01     22.094  69.801   9.858  0.00  0.00    +0.046 A 
BRANCH   7  13
ATOM     13  O1  CHE B   01     23.054  69.500  11.926  0.00  0.00    -0.494 OA
BRANCH  13  14
ATOM     14  C4  CHE B   01     22.769  68.885  13.360  0.00  0.00    +0.210 C 
BRANCH  14  15
ATOM     15  C3  CHE B   01     23.825  69.166  13.370  0.00  0.00    -0.037 C 
BRANCH  15  18
ATOM     16  C1  CHE B   01     17.648  66.635  15.532  0.00  0.00    +0.141 C 
ATOM     17  C2  CHE B   01     20.244  67.751  14.518  0.00  0.00    -0.050 C 
ATOM     18  N1  CHE B   01     23.025  68.753  13.817  0.00  0.00    +0.385 N 
ATOM     19  C24 CHE B   01     18.610  66.041  17.146  0.00  0.00    -0.050 C 
ATOM     20  C25 CHE B   01     24.679  68.638  14.803  0.00  0.00    +0.141 C 
ATOM     21  O2  CHE B   01     24.191  68.940  13.984  0.00  0.00    -0.383 OA
ATOM     22  H5  CHE B   01     16.814  66.243  15.921  0.00  0.00    -0.081 HD
ENDBRANCH  15  18
ENDBRANCH  14  15
ENDBRANCH  13  14
ENDBRANCH   7  13
ENDBRANCH   1  10
BRANCH   3  23
ATOM     23  C12 CHE B   01     16.402  67.894   5.213  0.00  0.00    +0.029 A 
ATOM     24  C13 CHE B   01     15.254  66.421   6.096  0.00  0.00    +0.114 A 
ATOM     25  N2  CHE B   01     14.867  65.016   6.138  0.00  0.00    -0.284 N 
ATOM     26  N3  CHE B   01     18.076  67.491   3.206  0.00  0.00    -0.172 NA
ATOM     27  C14 CHE B   01     19.761  69.835   1.961  0.00  0.00    +0.118 A 
ATOM     28  H14 CHE B   01     14.365  64.021   6.425  0.00  0.00    +0.188 HD
BRANCH  27  29
ATOM     29  C15 CHE B   01     15.900  66.899   5.499  0.00  0.00    +0.091 A 
ATOM     30  C16 CHE B   01     17.454  69.044   2.267  0.00  0.00    +0.030 A 
ATOM     31  C17 CHE B   01     14.111  66.620   5.108  0.00  0.00    +0.004 A 
ATOM     32  C18 CHE B   01     15.411  66.989   5.081  0.00  0.00    +0.020 A 
ATOM     33  C19 CHE B   01     18.778  68.800   3.400  0.00  0.00    +0.111 A 
ATOM     34  N4  CHE B   01     15.316  65.791   7.280  0.00  0.00    -0.253 NA
ENDBRANCH  27  29
ENDBRANCH   3  23
TORSDOF 7
ENDMDL
MODEL 2
REMARK VINA RESULT:      -9.3      4.337      7.583
REMARK  Name = dock_mp/CHEMBL2/CHEMBL205158.pdb
REMARK  7 active torsions:
REMARK  status: ('A' for Active; 'I' for Inactive)
REMARK    1  A    between atoms: N1_3  and  C3_4
REMARK    2  A    between atoms: C3_4  and  C4_5
REMARK    3  A    between atoms: C4_5  and  O1_6
REMARK    4  A    between atoms: O1_6  and  C5_7
REMARK    5  A    between atoms: C8_10  and  C9_11
REMARK    6  A    between atoms: C11_13  and  C12_14
REMARK    7  A    between atoms: C14_18  and  C15_19
REMARK                            x       y       z     vdW  Elec       q    Type
REMARK                         _______ _______ _______ _____ _____    ______ ____
ROOT
ATOM      1  C9  CHE B   01     20.586  68.499   5.071  0.00  0.00    +0.072 A 
ATOM      2  C10 CHE B   01     20.071  67.245   7.964  0.00  0.00    +0.037 A 
ATOM      3  C11 CHE B   01     19.002  66.758   9.086  0.00  0.00    -0.011 A 
ATOM      4  C20 CHE B   01     17.507  69.477   2.809  0.00  0.00    +0.028 A 
ATOM      5  C21 CHE B   01     19.340  67.999   6.224  0.00  0.00    +0.112 A 
ATOM      6  N5  CHE B   01     20.548  68.092   6.012  0.00  0.00    -0.255 NA
ENDROOT
BRANCH   1  10
ATOM      7  C5  CHE B   01     23.811  70.667   1.900  0.00  0.00    +0.120 A 
ATOM      8  C6  CHE B   01     24.421  69.470   8.779  0.00  0.00    +0.046 A 
ATOM      9  C7  CHE B   01     23.106  69.058   7.875  0.00  0.00    +0.013 A 
ATOM     10  C8  CHE B   01     21.555  69.384   3.032  0.00  0.00    +0.001 A 
ATOM     11  C22 CHE B   01     21.701  69.666   2.035  0.00  0.00    +0.013 A 
ATOM     12  C23 CHE B   01     23.007  70.073   2.940  0.00  0.00    +0.046 A 
BRANCH   7  13
ATOM     13  O1  CHE B   01     25.081  71.058   2.807  0.00  0.00    -0.494 OA
BRANCH  13  14
ATOM     14  C4  CHE B   01     26.338  71.455   3.688  0.00  0.00    +0.210 C 
BRANCH  14  15
ATOM     15  C3  CHE B   01     26.234  72.257   2.953  0.00  0.00    -0.037 C 
BRANCH  15  18
ATOM     16  C1  CHE B   01     28.196  68.835   8.756  0.00  0.00    +0.141 C 
ATOM     17  C2  CHE B   01     27.297  70.216   6.247  0.00  0.00    -0.050 C 
ATOM     18  N1  CHE B   01     26.607  71.905   3.818  0.00  0.00    +0.385 N 
ATOM     19  C24 CHE B   01     29.272  70.432   9.172  0.00  0.00    -0.050 C 
ATOM     20  C25 CHE B   01     27.190  73.676   3.322  0.00  0.00    +0.141 C 
ATOM     21  O2  CHE B   01     26.644  72.865   3.112  0.00  0.00    -0.383 OA
ATOM     22  H5  CHE B   01     28.530  68.426   9.606  0.00  0.00    -0.081 HD
ENDBRANCH  15  18
ENDBRANCH  14  15
ENDBRANCH  13  14
ENDBRANCH   7  13
ENDBRANCH   1  10
BRANCH   3  23
ATOM     23  C12 CHE B   01     17.506  67.452   7.481  0.00  0.00    +0.029 A 
ATOM     24  C13 CHE B   01     17.839  67.876   9.476  0.00  0.00    +0.114 A 
ATOM     25  N2  CHE B   01     17.445  68.627  10.661  0.00  0.00    -0.284 N 
ATOM     26  N3  CHE B   01     15.596  68.545   6.013  0.00  0.00    -0.172 NA
ATOM     27  C14 CHE B   01     15.208  67.801   2.983  0.00  0.00    +0.118 A 
ATOM     28  H14 CHE B   01     17.394  69.048  11.731  0.00  0.00    +0.188 HD
BRANCH  27  29
ATOM     29  C15 CHE B   01     17.455  67.873   8.551  0.00  0.00    +0.091 A 
ATOM     30  C16 CHE B   01     15.126  66.831   5.241  0.00  0.00    +0.030 A 
ATOM     31  C17 CHE B   01     16.896  66.769   9.930  0.00  0.00    +0.004 A 
ATOM     32  C18 CHE B   01     17.057  67.397   8.743  0.00  0.00    +0.020 A 
ATOM     33  C19 CHE B   01     16.204  68.121   4.720  0.00  0.00    +0.111 A 
ATOM     34  N4  CHE B   01     18.776  68.581  10.130  0.00  0.00    -0.253 NA
ENDBRANCH  27  29
ENDBRANCH   3  23
TORSDOF 7
ENDMDL
MODEL 3
REMARK VINA RESULT:      -9.3      4.556      7.934
REMARK  Name = dock_mp/CHEMBL2/CHEMBL205158.pdb
REMARK  7 active torsions:
REMARK  status: ('A' for Active; 'I' for Inactive)
REMARK    1  A    between atoms: N1_3  and  C3_4
REMARK    2  A    between atoms: C3_4  and  C4_5
REMARK    3  A    between atoms: C4_5  and  O1_6
REMARK    4  A    between atoms: O1_6  and  C5_7
REMARK    5  A    between atoms: C8_10  and  C9_11
REMARK    6  A    between atoms: C11_13  and  C12_14
REMARK    7  A    between atoms: C14_18  and  C15_19
REMARK                            x       y       z     vdW  Elec       q    Type
REMARK                         _______ _______ _______ _____ _____    ______ ____
ROOT
ATOM      1  C9  CHE B   01     20.554  68.468   5.167  0.00  0.00    +0.072 A 
ATOM      2  C10 CHE B   01     19.950  67.174   8.025  0.00  0.00    +0.037 A 
ATOM      3  C11 CHE B   01     18.847  66.678   9.110  0.00  0.00    -0.011 A 
ATOM      4  C20 CHE B   01     17.546  69.501   2.835  0.00  0.00    +0.028 A 
ATOM      5  C21 CHE B   01     19.274  67.959   6.277  0.00  0.00    +0.112 A 
ATOM      6  N5  CHE B   01     20.488  68.046   6.100  0.00  0.00    -0.255 NA
ENDROOT
BRANCH   1  10
ATOM      7  C5  CHE B   01     23.925  70.559   2.096  0.00  0.00    +0.120 A 
ATOM      8  C6  CHE B   01     24.429  69.028   8.918  0.00  0.00    +0.046 A 
ATOM      9  C7  CHE B   01     23.094  68.741   7.995  0.00  0.00    +0.013 A 
ATOM     10  C8  CHE B   01     21.586  69.376   3.170  0.00  0.00    +0.001 A 
ATOM     11  C22 CHE B   01     21.754  69.691   2.185  0.00  0.00    +0.013 A 
ATOM     12  C23 CHE B   01     23.080  69.973   3.108  0.00  0.00    +0.046 A 
BRANCH   7  13
ATOM     13  O1  CHE B   01     25.213  70.827   3.021  0.00  0.00    -0.494 OA
BRANCH  13  14
ATOM     14  C4  CHE B   01     26.472  71.097   3.946  0.00  0.00    +0.210 C 
BRANCH  14  15
ATOM     15  C3  CHE B   01     26.449  70.015   3.797  0.00  0.00    -0.037 C 
BRANCH  15  18
ATOM     16  C1  CHE B   01     28.647  76.342   5.887  0.00  0.00    +0.141 C 
ATOM     17  C2  CHE B   01     27.631  73.683   4.936  0.00  0.00    -0.050 C 
ATOM     18  N1  CHE B   01     26.881  70.836   4.184  0.00  0.00    +0.385 N 
ATOM     19  C24 CHE B   01     30.019  75.376   6.918  0.00  0.00    -0.050 C 
ATOM     20  C25 CHE B   01     27.669  69.157   4.712  0.00  0.00    +0.141 C 
ATOM     21  O2  CHE B   01     26.972  69.647   4.189  0.00  0.00    -0.383 OA
ATOM     22  H5  CHE B   01     29.030  77.198   6.237  0.00  0.00    -0.081 HD
ENDBRANCH  15  18
ENDBRANCH  14  15
ENDBRANCH  13  14
ENDBRANCH   7  13
ENDBRANCH   1  10
BRANCH   3  23
ATOM     23  C12 CHE B   01     17.401  67.407   7.473  0.00  0.00    +0.029 A 
ATOM     24  C13 CHE B   01     17.713  67.835   9.471  0.00  0.00    +0.114 A 
ATOM     25  N2  CHE B   01     17.322  68.607  10.644  0.00  0.00    -0.284 N 
ATOM     26  N3  CHE B   01     15.552  68.548   5.966  0.00  0.00    -0.172 NA
ATOM     27  C14 CHE B   01     15.193  67.794   2.935  0.00  0.00    +0.118 A 
ATOM     28  H14 CHE B   01     17.266  69.037  11.710  0.00  0.00    +0.188 HD
BRANCH  27  29
ATOM     29  C15 CHE B   01     17.345  67.837   8.540  0.00  0.00    +0.091 A 
ATOM     30  C16 CHE B   01     15.067  66.818   5.187  0.00  0.00    +0.030 A 
ATOM     31  C17 CHE B   01     16.757  66.732   9.906  0.00  0.00    +0.004 A 
ATOM     32  C18 CHE B   01     16.941  67.362   8.724  0.00  0.00    +0.020 A 
ATOM     33  C19 CHE B   01     16.161  68.103   4.689  0.00  0.00    +0.111 A 
ATOM     34  N4  CHE B   01     18.642  68.533  10.143  0.00  0.00    -0.253 NA
ENDBRANCH  27  29
ENDBRANCH   3  23
TORSDOF 7
ENDMDL
MODEL 4
REMARK VINA RESULT:      -9.0      1.309      1.381
REMARK  Name = dock_mp/CHEMBL2/CHEMBL205158.pdb
REMARK  7 active torsions:
REMARK  status: ('A' for Active; 'I' for Inactive)
REMARK    1  A    between atoms: N1_3  and  C3_4
REMARK    2  A    between atoms: C3_4  and  C4_5
REMARK    3  A    between atoms: C4_5  and  O1_6
REMARK    4  A    between atoms: O1_6  and  C5_7
REMARK    5  A    between atoms: C8_10  and  C9_11
REMARK    6  A    between atoms: C11_13  and  C12_14
REMARK    7  A    between atoms: C14_18  and  C15_19
REMARK                            x       y       z     vdW  Elec       q    Type
REMARK                         _______ _______ _______ _____ _____    ______ ____
ROOT
ATOM      1  C9  CHE B   01     20.009  69.238   7.717  0.00  0.00    +0.072 A 
ATOM      2  C10 CHE B   01     16.939  68.530   8.247  0.00  0.00    +0.037 A 
ATOM      3  C11 CHE B   01     15.503  68.074   7.639  0.00  0.00    -0.011 A 
ATOM      4  C20 CHE B   01     21.430  69.060   4.042  0.00  0.00    +0.028 A 
ATOM      5  C21 CHE B   01     18.493  68.738   6.954  0.00  0.00    +0.112 A 
ATOM      6  N5  CHE B   01     19.047  69.035   8.011  0.00  0.00    -0.255 NA
ENDROOT
BRANCH   1  10
ATOM      7  C5  CHE B   01     24.510  70.228   9.698  0.00  0.00    +0.120 A 
ATOM      8  C6  CHE B   01     18.595  68.156  12.838  0.00  0.00    +0.046 A 
ATOM      9  C7  CHE B   01     18.748  68.416  11.218  0.00  0.00    +0.013 A 
ATOM     10  C8  CHE B   01     22.343  69.863   7.910  0.00  0.00    +0.001 A 
ATOM     11  C22 CHE B   01     23.320  70.166   7.684  0.00  0.00    +0.013 A 
ATOM     12  C23 CHE B   01     23.162  69.906   9.296  0.00  0.00    +0.046 A 
BRANCH   7  13
ATOM     13  O1  CHE B   01     24.331  69.967  11.276  0.00  0.00    -0.494 OA
BRANCH  13  14
ATOM     14  C4  CHE B   01     24.160  69.727  12.833  0.00  0.00    +0.210 C 
BRANCH  14  15
ATOM     15  C3  CHE B   01     25.126  70.224  12.722  0.00  0.00    -0.037 C 
BRANCH  15  18
ATOM     16  C1  CHE B   01     20.302  65.653  14.971  0.00  0.00    +0.141 C 
ATOM     17  C2  CHE B   01     22.308  67.625  13.923  0.00  0.00    -0.050 C 
ATOM     18  N1  CHE B   01     24.537  69.550  13.178  0.00  0.00    +0.385 N 
ATOM     19  C24 CHE B   01     21.463  65.409  16.544  0.00  0.00    -0.050 C 
ATOM     20  C25 CHE B   01     26.157  70.008  14.119  0.00  0.00    +0.141 C 
ATOM     21  O2  CHE B   01     25.568  70.132  13.320  0.00  0.00    -0.383 OA
ATOM     22  H5  CHE B   01     19.671  64.988  15.371  0.00  0.00    -0.081 HD
ENDBRANCH  15  18
ENDBRANCH  14  15
ENDBRANCH  13  14
ENDBRANCH   7  13
ENDBRANCH   1  10
BRANCH   3  23
ATOM     23  C12 CHE B   01     16.706  68.092   5.676  0.00  0.00    +0.029 A 
ATOM     24  C13 CHE B   01     15.482  66.741   6.650  0.00  0.00    +0.114 A 
ATOM     25  N2  CHE B   01     14.861  65.423   6.660  0.00  0.00    -0.284 N 
ATOM     26  N3  CHE B   01     17.901  67.637   3.361  0.00  0.00    -0.172 NA
ATOM     27  C14 CHE B   01     19.738  69.792   1.996  0.00  0.00    +0.118 A 
ATOM     28  H14 CHE B   01     14.245  64.498   6.962  0.00  0.00    +0.188 HD
BRANCH  27  29
ATOM     29  C15 CHE B   01     16.090  67.168   5.978  0.00  0.00    +0.091 A 
ATOM     30  C16 CHE B   01     17.416  69.413   2.712  0.00  0.00    +0.030 A 
ATOM     31  C17 CHE B   01     14.241  67.286   5.955  0.00  0.00    +0.004 A 
ATOM     32  C18 CHE B   01     15.561  67.405   5.685  0.00  0.00    +0.020 A 
ATOM     33  C19 CHE B   01     18.850  68.770   3.505  0.00  0.00    +0.111 A 
ATOM     34  N4  CHE B   01     15.635  65.952   7.726  0.00  0.00    -0.253 NA
ENDBRANCH  27  29
ENDBRANCH   3  23
TORSDOF 7
ENDMDL
MODEL 5
REMARK VINA RESULT:      -8.9      3.381      6.824
REMARK  Name = dock_mp/CHEMBL2/CHEMBL205158.pdb
REMARK  7 active torsions:
REMARK  status: ('A' for Active; 'I' for Inactive)
REMARK    1  A    between atoms: N1_3  and  C3_4
REMARK    2  A    between atoms: C3_4  and  C4_5
REMARK    3  A    between atoms: C4_5  and  O1_6
REMARK    4  A    between atoms: O1_6  and  C5_7
REMARK    5  A    between atoms: C8_10  and  C9_11
REMARK    6  A    between atoms: C11_13  and  C12_14
REMARK    7  A    between atoms: C14_18  and  C15_19
REMARK                            x       y       z     vdW  Elec       q    Type
REMARK                         _______ _______ _______ _____ _____    ______ ____
ROOT
ATOM      1  C9  CHE B   01     20.509  69.607   7.118  0.00  0.00    +0.072 A 
ATOM      2  C10 CHE B   01     20.147  69.316   3.956  0.00  0.00    +0.037 A 
ATOM      3  C11 CHE B   01     19.205  68.870   2.711  0.00  0.00    -0.011 A 
ATOM      4  C20 CHE B   01     17.577  68.497   9.511  0.00  0.00    +0.028 A 
ATOM      5  C21 CHE B   01     19.405  69.092   5.834  0.00  0.00    +0.112 A 
ATOM      6  N5  CHE B   01     20.511  69.562   6.092  0.00  0.00    -0.255 NA
ENDROOT
BRANCH   1  10
ATOM      7  C5  CHE B   01     23.609  70.620  10.928  0.00  0.00    +0.120 A 
ATOM      8  C6  CHE B   01     25.002  69.899   4.097  0.00  0.00    +0.046 A 
ATOM      9  C7  CHE B   01     23.501  69.754   4.762  0.00  0.00    +0.013 A 
ATOM     10  C8  CHE B   01     21.323  70.044   9.359  0.00  0.00    +0.001 A 
ATOM     11  C22 CHE B   01     21.371  70.194  10.394  0.00  0.00    +0.013 A 
ATOM     12  C23 CHE B   01     22.863  70.337   9.726  0.00  0.00    +0.046 A 
BRANCH   7  13
ATOM     13  O1  CHE B   01     25.062  70.756  10.252  0.00  0.00    -0.494 OA
BRANCH  13  14
ATOM     14  C4  CHE B   01     26.500  70.901   9.599  0.00  0.00    +0.210 C 
BRANCH  14  15
ATOM     15  C3  CHE B   01     26.547  71.468  10.532  0.00  0.00    -0.037 C 
BRANCH  15  18
ATOM     16  C1  CHE B   01     28.496  68.691   4.390  0.00  0.00    +0.141 C 
ATOM     17  C2  CHE B   01     27.570  69.829   7.009  0.00  0.00    -0.050 C 
ATOM     18  N1  CHE B   01     26.971  71.153   9.677  0.00  0.00    +0.385 N 
ATOM     19  C24 CHE B   01     30.194  69.656   4.647  0.00  0.00    -0.050 C 
ATOM     20  C25 CHE B   01     28.056  72.325  10.760  0.00  0.00    +0.141 C 
ATOM     21  O2  CHE B   01     27.194  71.835  10.630  0.00  0.00    -0.383 OA
ATOM     22  H5  CHE B   01     28.859  68.343   3.526  0.00  0.00    -0.081 HD
ENDBRANCH  15  18
ENDBRANCH  14  15
ENDBRANCH  13  14
ENDBRANCH   7  13
ENDBRANCH   1  10
BRANCH   3  23
ATOM     23  C12 CHE B   01     17.760  68.347   4.425  0.00  0.00    +0.029 A 
ATOM     24  C13 CHE B   01     17.712  69.594   2.777  0.00  0.00    +0.114 A 
ATOM     25  N2  CHE B   01     16.969  70.565   1.986  0.00  0.00    -0.284 N 
ATOM     26  N3  CHE B   01     15.785  68.082   6.163  0.00  0.00    -0.172 NA
ATOM     27  C14 CHE B   01     16.001  66.142   8.629  0.00  0.00    +0.118 A 
ATOM     28  H14 CHE B   01     16.666  71.323   1.174  0.00  0.00    +0.188 HD
BRANCH  27  29
ATOM     29  C15 CHE B   01     17.457  69.105   3.614  0.00  0.00    +0.091 A 
ATOM     30  C16 CHE B   01     15.966  66.155   6.170  0.00  0.00    +0.030 A 
ATOM     31  C17 CHE B   01     17.116  68.505   1.894  0.00  0.00    +0.004 A 
ATOM     32  C18 CHE B   01     17.208  68.638   3.237  0.00  0.00    +0.020 A 
ATOM     33  C19 CHE B   01     16.641  67.420   7.191  0.00  0.00    +0.111 A 
ATOM     34  N4  CHE B   01     18.301  70.764   2.483  0.00  0.00    -0.253 NA
ENDBRANCH  27  29
ENDBRANCH   3  23
TORSDOF 7
ENDMDL
MODEL 6
REMARK VINA RESULT:      -8.9      1.233      2.648
REMARK  Name = dock_mp/CHEMBL2/CHEMBL205158.pdb
REMARK  7 active torsions:
REMARK  status: ('A' for Active; 'I' for Inactive)
REMARK    1  A    between atoms: N1_3  and  C3_4
REMARK    2  A    between atoms: C3_4  and  C4_5
REMARK    3  A    between atoms: C4_5  and  O1_6
REMARK    4  A    between atoms: O1_6  and  C5_7
REMARK    5  A    between atoms: C8_10  and  C9_11
REMARK    6  A    between atoms: C11_13  and  C12_14
REMARK    7  A    between atoms: C14_18  and  C15_19
REMARK                            x       y       z     vdW  Elec       q    Type
REMARK                         _______ _______ _______ _____ _____    ______ ____
ROOT
ATOM      1  C9  CHE B   01     19.451  69.266   7.631  0.00  0.00    +0.072 A 
ATOM      2  C10 CHE B   01     16.388  68.396   7.899  0.00  0.00    +0.037 A 
ATOM      3  C11 CHE B   01     15.037  67.863   7.173  0.00  0.00    -0.011 A 
ATOM      4  C20 CHE B   01     21.191  69.159   4.094  0.00  0.00    +0.028 A 
ATOM      5  C21 CHE B   01     18.035  68.685   6.744  0.00  0.00    +0.112 A 
ATOM      6  N5  CHE B   01     18.480  69.012   7.843  0.00  0.00    -0.255 NA
ENDROOT
BRANCH   1  10
ATOM      7  C5  CHE B   01     23.796  70.246   9.938  0.00  0.00    +0.120 A 
ATOM      8  C6  CHE B   01     17.957  67.299  12.458  0.00  0.00    +0.046 A 
ATOM      9  C7  CHE B   01     18.142  67.820  10.905  0.00  0.00    +0.013 A 
ATOM     10  C8  CHE B   01     21.724  70.015   8.021  0.00  0.00    +0.001 A 
ATOM     11  C22 CHE B   01     22.681  70.417   7.888  0.00  0.00    +0.013 A 
ATOM     12  C23 CHE B   01     22.491  69.897   9.432  0.00  0.00    +0.046 A 
BRANCH   7  13
ATOM     13  O1  CHE B   01     23.587  69.729  11.447  0.00  0.00    -0.494 OA
BRANCH  13  14
ATOM     14  C4  CHE B   01     23.395  69.231  12.939  0.00  0.00    +0.210 C 
BRANCH  14  15
ATOM     15  C3  CHE B   01     22.434  69.055  12.449  0.00  0.00    -0.037 C 
BRANCH  15  18
ATOM     16  C1  CHE B   01     27.545  68.739  17.246  0.00  0.00    +0.141 C 
ATOM     17  C2  CHE B   01     25.428  68.917  15.126  0.00  0.00    -0.050 C 
ATOM     18  N1  CHE B   01     23.049  68.943  13.237  0.00  0.00    +0.385 N 
ATOM     19  C24 CHE B   01     26.190  67.954  18.441  0.00  0.00    -0.050 C 
ATOM     20  C25 CHE B   01     21.231  68.357  13.511  0.00  0.00    +0.141 C 
ATOM     21  O2  CHE B   01     21.918  68.756  12.904  0.00  0.00    -0.383 OA
ATOM     22  H5  CHE B   01     28.208  68.655  17.991  0.00  0.00    -0.081 HD
ENDBRANCH  15  18
ENDBRANCH  14  15
ENDBRANCH  13  14
ENDBRANCH   7  13
ENDBRANCH   1  10
BRANCH   3  23
ATOM     23  C12 CHE B   01     16.401  67.943   5.321  0.00  0.00    +0.029 A 
ATOM     24  C13 CHE B   01     15.280  66.491   6.271  0.00  0.00    +0.114 A 
ATOM     25  N2  CHE B   01     14.836  65.103   6.312  0.00  0.00    -0.284 N 
ATOM     26  N3  CHE B   01     17.852  67.536   3.148  0.00  0.00    -0.172 NA
ATOM     27  C14 CHE B   01     19.511  69.846   1.809  0.00  0.00    +0.118 A 
ATOM     28  H14 CHE B   01     14.321  64.121   6.618  0.00  0.00    +0.188 HD
BRANCH  27  29
ATOM     29  C15 CHE B   01     15.886  66.961   5.627  0.00  0.00    +0.091 A 
ATOM     30  C16 CHE B   01     17.208  69.163   2.331  0.00  0.00    +0.030 A 
ATOM     31  C17 CHE B   01     14.052  66.792   5.420  0.00  0.00    +0.004 A 
ATOM     32  C18 CHE B   01     15.361  67.094   5.267  0.00  0.00    +0.020 A 
ATOM     33  C19 CHE B   01     18.628  68.802   3.305  0.00  0.00    +0.111 A 
ATOM     34  N4  CHE B   01     15.431  65.808   7.417  0.00  0.00    -0.253 NA
ENDBRANCH  27  29
ENDBRANCH   3  23
TORSDOF 7
ENDMDL
MODEL 7
REMARK VINA RESULT:      -8.9      4.789      9.455
REMARK  Name = dock_mp/CHEMBL2/CHEMBL205158.pdb
REMARK  7 active torsions:
REMARK  status: ('A' for Active; 'I' for Inactive)
REMARK    1  A    between atoms: N1_3  and  C3_4
REMARK    2  A    between atoms: C3_4  and  C4_5
REMARK    3  A    between atoms: C4_5  and  O1_6
REMARK    4  A    between atoms: O1_6  and  C5_7
REMARK    5  A    between atoms: C8_10  and  C9_11
REMARK    6  A    between atoms: C11_13  and  C12_14
REMARK    7  A    between atoms: C14_18  and  C15_19
REMARK                            x       y       z     vdW  Elec       q    Type
REMARK                         _______ _______ _______ _____ _____    ______ ____
ROOT
ATOM      1  C9  CHE B   01     20.902  69.710   6.246  0.00  0.00    +0.072 A 
ATOM      2  C10 CHE B   01     21.739  70.233   9.285  0.00  0.00    +0.037 A 
ATOM      3  C11 CHE B   01     21.427  69.998  10.862  0.00  0.00    -0.011 A 
ATOM      4  C20 CHE B   01     17.697  67.547   5.466  0.00  0.00    +0.028 A 
ATOM      5  C21 CHE B   01     20.473  69.394   7.934  0.00  0.00    +0.112 A 
ATOM      6  N5  CHE B   01     21.269  69.945   7.175  0.00  0.00    -0.255 NA
ENDROOT
BRANCH   1  10
ATOM      7  C5  CHE B   01     22.225  69.407   1.417  0.00  0.00    +0.120 A 
ATOM      8  C6  CHE B   01     26.216  69.163   7.174  0.00  0.00    +0.046 A 
ATOM      9  C7  CHE B   01     24.577  69.341   7.184  0.00  0.00    +0.013 A 
ATOM     10  C8  CHE B   01     20.756  69.646   3.827  0.00  0.00    +0.001 A 
ATOM     11  C22 CHE B   01     20.389  69.653   2.847  0.00  0.00    +0.013 A 
ATOM     12  C23 CHE B   01     22.020  69.476   2.843  0.00  0.00    +0.046 A 
BRANCH   7  13
ATOM     13  O1  CHE B   01     23.824  69.234   1.439  0.00  0.00    -0.494 OA
BRANCH  13  14
ATOM     14  C4  CHE B   01     25.400  69.059   1.441  0.00  0.00    +0.210 C 
BRANCH  14  15
ATOM     15  C3  CHE B   01     25.188  69.763   0.633  0.00  0.00    -0.037 C 
BRANCH  15  18
ATOM     16  C1  CHE B   01     28.794  66.105   5.413  0.00  0.00    +0.141 C 
ATOM     17  C2  CHE B   01     27.162  67.641   3.416  0.00  0.00    -0.050 C 
ATOM     18  N1  CHE B   01     25.841  69.291   1.233  0.00  0.00    +0.385 N 
ATOM     19  C24 CHE B   01     30.407  66.691   4.446  0.00  0.00    -0.050 C 
ATOM     20  C25 CHE B   01     26.621  70.284  -0.226  0.00  0.00    +0.141 C 
ATOM     21  O2  CHE B   01     25.802  69.986   0.265  0.00  0.00    -0.383 OA
ATOM     22  H5  CHE B   01     29.390  65.611   6.047  0.00  0.00    -0.081 HD
ENDBRANCH  15  18
ENDBRANCH  14  15
ENDBRANCH  13  14
ENDBRANCH   7  13
ENDBRANCH   1  10
BRANCH   3  23
ATOM     23  C12 CHE B   01     19.657  68.811   9.992  0.00  0.00    +0.029 A 
ATOM     24  C13 CHE B   01     21.238  68.397  11.256  0.00  0.00    +0.114 A 
ATOM     25  N2  CHE B   01     21.938  67.418  12.079  0.00  0.00    -0.284 N 
ATOM     26  N3  CHE B   01     17.820  67.054   9.262  0.00  0.00    -0.172 NA
ATOM     27  C14 CHE B   01     15.466  67.829   7.327  0.00  0.00    +0.118 A 
ATOM     28  H14 CHE B   01     22.693  66.913  12.785  0.00  0.00    +0.188 HD
BRANCH  27  29
ATOM     29  C15 CHE B   01     20.412  68.305  10.698  0.00  0.00    +0.091 A 
ATOM     30  C16 CHE B   01     16.400  68.393   9.531  0.00  0.00    +0.030 A 
ATOM     31  C17 CHE B   01     20.434  68.839  12.472  0.00  0.00    +0.004 A 
ATOM     32  C18 CHE B   01     20.070  68.499  11.215  0.00  0.00    +0.020 A 
ATOM     33  C19 CHE B   01     17.327  67.867   8.130  0.00  0.00    +0.111 A 
ATOM     34  N4  CHE B   01     22.552  68.185  11.078  0.00  0.00    -0.253 NA
ENDBRANCH  27  29
ENDBRANCH   3  23
TORSDOF 7
ENDMDL
MODEL 8
REMARK VINA RESULT:      -8.8      3.526      6.901
REMARK  Name = dock_mp/CHEMBL2/CHEMBL205158.pdb
REMARK  7 active torsions:
REMARK  status: ('A' for Active; 'I' for Inactive)
REMARK    1  A    between atoms: N1_3  and  C3_4
REMARK    2  A    between atoms: C3_4  and  C4_5
REMARK    3  A    between atoms: C4_5  and  O1_6
REMARK    4  A    between atoms: O1_6  and  C5_7
REMARK    5  A    between atoms: C8_10  and  C9_11
REMARK    6  A    between atoms: C11_13  and  C12_14
REMARK    7  A    between atoms: C14_18  and  C15_19
REMARK                            x       y       z     vdW  Elec       q    Type
REMARK                         _______ _______ _______ _____ _____    ______ ____
ROOT
ATOM      1  C9  CHE B   01     20.488  69.677   7.118  0.00  0.00    +0.072 A 
ATOM      2  C10 CHE B   01     20.136  69.339   3.960  0.00  0.00    +0.037 A 
ATOM      3  C11 CHE B   01     19.204  68.861   2.720  0.00  0.00    -0.011 A 
ATOM      4  C20 CHE B   01     17.571  68.551   9.522  0.00  0.00    +0.028 A 
ATOM      5  C21 CHE B   01     19.394  69.127   5.840  0.00  0.00    +0.112 A 
ATOM      6  N5  CHE B   01     20.492  69.619   6.094  0.00  0.00    -0.255 NA
ENDROOT
BRANCH   1  10
ATOM      7  C5  CHE B   01     23.566  70.780  10.922  0.00  0.00    +0.120 A 
ATOM      8  C6  CHE B   01     24.987  69.961   4.107  0.00  0.00    +0.046 A 
ATOM      9  C7  CHE B   01     23.486  69.814   4.770  0.00  0.00    +0.013 A 
ATOM     10  C8  CHE B   01     21.290  70.158   9.355  0.00  0.00    +0.001 A 
ATOM     11  C22 CHE B   01     21.334  70.325  10.387  0.00  0.00    +0.013 A 
ATOM     12  C23 CHE B   01     22.826  70.471   9.723  0.00  0.00    +0.046 A 
BRANCH   7  13
ATOM     13  O1  CHE B   01     25.020  70.918  10.248  0.00  0.00    -0.494 OA
BRANCH  13  14
ATOM     14  C4  CHE B   01     26.454  71.036   9.583  0.00  0.00    +0.210 C 
BRANCH  14  15
ATOM     15  C3  CHE B   01     26.251  69.964   9.645  0.00  0.00    -0.037 C 
BRANCH  15  18
ATOM     16  C1  CHE B   01     29.886  75.965   9.668  0.00  0.00    +0.141 C 
ATOM     17  C2  CHE B   01     28.247  73.451   9.694  0.00  0.00    -0.050 C 
ATOM     18  N1  CHE B   01     26.899  70.730   9.590  0.00  0.00    +0.385 N 
ATOM     19  C24 CHE B   01     31.396  74.896   8.990  0.00  0.00    -0.050 C 
ATOM     20  C25 CHE B   01     27.592  69.014   9.043  0.00  0.00    +0.141 C 
ATOM     21  O2  CHE B   01     26.825  69.557   9.387  0.00  0.00    -0.383 OA
ATOM     22  H5  CHE B   01     30.481  76.769   9.637  0.00  0.00    -0.081 HD
ENDBRANCH  15  18
ENDBRANCH  14  15
ENDBRANCH  13  14
ENDBRANCH   7  13
ENDBRANCH   1  10
BRANCH   3  23
ATOM     23  C12 CHE B   01     17.765  68.337   4.439  0.00  0.00    +0.029 A 
ATOM     24  C13 CHE B   01     17.710  69.581   2.790  0.00  0.00    +0.114 A 
ATOM     25  N2  CHE B   01     16.962  70.550   1.999  0.00  0.00    -0.284 N 
ATOM     26  N3  CHE B   01     15.795  68.068   6.183  0.00  0.00    -0.172 NA
ATOM     27  C14 CHE B   01     16.022  66.133   8.649  0.00  0.00    +0.118 A 
ATOM     28  H14 CHE B   01     16.655  71.307   1.187  0.00  0.00    +0.188 HD
BRANCH  27  29
ATOM     29  C15 CHE B   01     17.458  69.093   3.627  0.00  0.00    +0.091 A 
ATOM     30  C16 CHE B   01     15.965  66.151   6.191  0.00  0.00    +0.030 A 
ATOM     31  C17 CHE B   01     17.096  68.499   1.910  0.00  0.00    +0.004 A 
ATOM     32  C18 CHE B   01     17.202  68.629   3.252  0.00  0.00    +0.020 A 
ATOM     33  C19 CHE B   01     16.660  67.408   7.208  0.00  0.00    +0.111 A 
ATOM     34  N4  CHE B   01     18.306  70.747   2.492  0.00  0.00    -0.253 NA
ENDBRANCH  27  29
ENDBRANCH   3  23
TORSDOF 7
ENDMDL
MODEL 9
REMARK VINA RESULT:      -8.6      4.856     10.029
REMARK  Name = dock_mp/CHEMBL2/CHEMBL205158.pdb
REMARK  7 active torsions:
REMARK  status: ('A' for Active; 'I' for Inactive)
REMARK    1  A    between atoms: N1_3  and  C3_4
REMARK    2  A    between atoms: C3_4  and  C4_5
REMARK    3  A    between atoms: C4_5  and  O1_6
REMARK    4  A    between atoms: O1_6  and  C5_7
REMARK    5  A    between atoms: C8_10  and  C9_11
REMARK    6  A    between atoms: C11_13  and  C12_14
REMARK    7  A    between atoms: C14_18  and  C15_19
REMARK                            x       y       z     vdW  Elec       q    Type
REMARK                         _______ _______ _______ _____ _____    ______ ____
ROOT
ATOM      1  C9  CHE B   01     20.892  69.682   6.259  0.00  0.00    +0.072 A 
ATOM      2  C10 CHE B   01     21.705  70.204   9.305  0.00  0.00    +0.037 A 
ATOM      3  C11 CHE B   01     21.370  69.984  10.879  0.00  0.00    -0.011 A 
ATOM      4  C20 CHE B   01     17.653  67.582   5.453  0.00  0.00    +0.028 A 
ATOM      5  C21 CHE B   01     20.438  69.385   7.943  0.00  0.00    +0.112 A 
ATOM      6  N5  CHE B   01     21.254  69.915   7.191  0.00  0.00    -0.255 NA
ENDROOT
BRANCH   1  10
ATOM      7  C5  CHE B   01     22.274  69.427   1.444  0.00  0.00    +0.120 A 
ATOM      8  C6  CHE B   01     26.215  69.360   7.240  0.00  0.00    +0.046 A 
ATOM      9  C7  CHE B   01     24.571  69.469   7.233  0.00  0.00    +0.013 A 
ATOM     10  C8  CHE B   01     20.773  69.608   3.839  0.00  0.00    +0.001 A 
ATOM     11  C22 CHE B   01     20.415  69.599   2.855  0.00  0.00    +0.013 A 
ATOM     12  C23 CHE B   01     22.052  69.490   2.868  0.00  0.00    +0.046 A 
BRANCH   7  13
ATOM     13  O1  CHE B   01     23.879  69.321   1.481  0.00  0.00    -0.494 OA
BRANCH  13  14
ATOM     14  C4  CHE B   01     25.460  69.225   1.534  0.00  0.00    +0.210 C 
BRANCH  14  15
ATOM     15  C3  CHE B   01     25.115  68.849   2.500  0.00  0.00    -0.037 C 
BRANCH  15  18
ATOM     16  C1  CHE B   01     29.336  70.106  -2.962  0.00  0.00    +0.141 C 
ATOM     17  C2  CHE B   01     27.449  69.604  -0.682  0.00  0.00    -0.050 C 
ATOM     18  N1  CHE B   01     25.842  68.969   1.816  0.00  0.00    +0.385 N 
ATOM     19  C24 CHE B   01     30.788  69.409  -1.827  0.00  0.00    -0.050 C 
ATOM     20  C25 CHE B   01     26.404  68.230   3.508  0.00  0.00    +0.141 C 
ATOM     21  O2  CHE B   01     25.667  68.583   2.932  0.00  0.00    -0.383 OA
ATOM     22  H5  CHE B   01     30.012  70.250  -3.685  0.00  0.00    -0.081 HD
ENDBRANCH  15  18
ENDBRANCH  14  15
ENDBRANCH  13  14
ENDBRANCH   7  13
ENDBRANCH   1  10
BRANCH   3  23
ATOM     23  C12 CHE B   01     19.586  68.829   9.995  0.00  0.00    +0.029 A 
ATOM     24  C13 CHE B   01     21.145  68.389  11.278  0.00  0.00    +0.114 A 
ATOM     25  N2  CHE B   01     21.817  67.400  12.112  0.00  0.00    -0.284 N 
ATOM     26  N3  CHE B   01     17.723  67.106   9.253  0.00  0.00    -0.172 NA
ATOM     27  C14 CHE B   01     15.406  67.919   7.290  0.00  0.00    +0.118 A 
ATOM     28  H14 CHE B   01     22.554  66.882  12.828  0.00  0.00    +0.188 HD
BRANCH  27  29
ATOM     29  C15 CHE B   01     20.324  68.311  10.711  0.00  0.00    +0.091 A 
ATOM     30  C16 CHE B   01     16.327  68.470   9.502  0.00  0.00    +0.030 A 
ATOM     31  C17 CHE B   01     20.337  68.848  12.484  0.00  0.00    +0.004 A 
ATOM     32  C18 CHE B   01     19.980  68.512  11.224  0.00  0.00    +0.020 A 
ATOM     33  C19 CHE B   01     17.259  67.925   8.112  0.00  0.00    +0.111 A 
ATOM     34  N4  CHE B   01     22.457  68.152  11.114  0.00  0.00    -0.253 NA
ENDBRANCH  27  29
ENDBRANCH   3  23
TORSDOF 7
ENDMDL
MODEL 10
REMARK VINA RESULT:      -8.5      3.196     10.558
REMARK  Name = dock_mp/CHEMBL2/CHEMBL205158.pdb
REMARK  7 active torsions:
REMARK  status: ('A' for Active; 'I' for Inactive)
REMARK    1  A    between atoms: N1_3  and  C3_4
REMARK    2  A    between atoms: C3_4  and  C4_5
REMARK    3  A    between atoms: C4_5  and  O1_6
REMARK    4  A    between atoms: O1_6  and  C5_7
REMARK    5  A    between atoms: C8_10  and  C9_11
REMARK    6  A    between atoms: C11_13  and  C12_14
REMARK    7  A    between atoms: C14_18  and  C15_19
REMARK                            x       y       z     vdW  Elec       q    Type
REMARK                         _______ _______ _______ _____ _____    ______ ____
ROOT
ATOM      1  C9  CHE B   01     20.056  69.293  11.052  0.00  0.00    +0.072 A 
ATOM      2  C10 CHE B   01     22.522  71.139  10.201  0.00  0.00    +0.037 A 
ATOM      3  C11 CHE B   01     24.077  71.551  10.422  0.00  0.00    -0.011 A 
ATOM      4  C20 CHE B   01     20.530  66.635  13.927  0.00  0.00    +0.028 A 
ATOM      5  C21 CHE B   01     21.756  69.666  11.373  0.00  0.00    +0.112 A 
ATOM      6  N5  CHE B   01     20.768  69.938  10.693  0.00  0.00    -0.255 NA
ENDROOT
BRANCH   1  10
ATOM      7  C5  CHE B   01     15.778  66.959   9.866  0.00  0.00    +0.120 A 
ATOM      8  C6  CHE B   01     20.959  69.191   5.707  0.00  0.00    +0.046 A 
ATOM      9  C7  CHE B   01     20.943  69.357   7.346  0.00  0.00    +0.013 A 
ATOM     10  C8  CHE B   01     17.901  68.204  11.268  0.00  0.00    +0.001 A 
ATOM     11  C22 CHE B   01     17.023  67.792  11.663  0.00  0.00    +0.013 A 
ATOM     12  C23 CHE B   01     17.044  67.630  10.031  0.00  0.00    +0.046 A 
BRANCH   7  13
ATOM     13  O1  CHE B   01     15.819  66.811   8.265  0.00  0.00    -0.494 OA
BRANCH  13  14
ATOM     14  C4  CHE B   01     15.859  66.646   6.689  0.00  0.00    +0.210 C 
BRANCH  14  15
ATOM     15  C3  CHE B   01     15.237  65.824   7.050  0.00  0.00    -0.037 C 
BRANCH  15  18
ATOM     16  C1  CHE B   01     18.977  69.789   2.633  0.00  0.00    +0.141 C 
ATOM     17  C2  CHE B   01     17.433  68.133   4.603  0.00  0.00    -0.050 C 
ATOM     18  N1  CHE B   01     15.677  66.322   6.297  0.00  0.00    +0.385 N 
ATOM     19  C24 CHE B   01     17.880  68.993   1.203  0.00  0.00    -0.050 C 
ATOM     20  C25 CHE B   01     14.263  65.116   5.781  0.00  0.00    +0.141 C 
ATOM     21  O2  CHE B   01     14.820  65.520   6.506  0.00  0.00    -0.383 OA
ATOM     22  H5  CHE B   01     19.456  70.316   1.930  0.00  0.00    -0.081 HD
ENDBRANCH  15  18
ENDBRANCH  14  15
ENDBRANCH  13  14
ENDBRANCH   7  13
ENDBRANCH   1  10
BRANCH   3  23
ATOM     23  C12 CHE B   01     23.938  69.905  12.025  0.00  0.00    +0.029 A 
ATOM     24  C13 CHE B   01     25.015  70.189  10.285  0.00  0.00    +0.114 A 
ATOM     25  N2  CHE B   01     26.006  69.674   9.349  0.00  0.00    -0.284 N 
ATOM     26  N3  CHE B   01     24.133  67.775  13.580  0.00  0.00    -0.172 NA
ATOM     27  C14 CHE B   01     22.426  67.480  16.204  0.00  0.00    +0.118 A 
ATOM     28  H14 CHE B   01     26.720  69.562   8.453  0.00  0.00    +0.188 HD
BRANCH  27  29
ATOM     29  C15 CHE B   01     24.652  69.793  11.129  0.00  0.00    +0.091 A 
ATOM     30  C16 CHE B   01     24.173  68.873  15.178  0.00  0.00    +0.030 A 
ATOM     31  C17 CHE B   01     26.152  70.876  11.031  0.00  0.00    +0.004 A 
ATOM     32  C18 CHE B   01     25.134  70.091  11.448  0.00  0.00    +0.020 A 
ATOM     33  C19 CHE B   01     22.869  68.066  14.314  0.00  0.00    +0.111 A 
ATOM     34  N4  CHE B   01     24.702  70.136   8.980  0.00  0.00    -0.253 NA
ENDBRANCH  27  29
ENDBRANCH   3  23
TORSDOF 7
ENDMDL
