MODEL 1
REMARK VINA RESULT:      -8.9      0.000      0.000
REMARK  Name = dock_mp/CHEMBL2/CHEMBL202994.pdb
REMARK  7 active torsions:
REMARK  status: ('A' for Active; 'I' for Inactive)
REMARK    1  A    between atoms: N1_4  and  C4_5
REMARK    2  A    between atoms: C4_5  and  C5_6
REMARK    3  A    between atoms: C5_6  and  O1_7
REMARK    4  A    between atoms: O1_7  and  C6_8
REMARK    5  A    between atoms: C9_11  and  C10_12
REMARK    6  A    between atoms: C12_14  and  C13_15
REMARK    7  A    between atoms: C15_19  and  C16_20
REMARK                            x       y       z     vdW  Elec       q    Type
REMARK                         _______ _______ _______ _____ _____    ______ ____
ROOT
ATOM      1  C10 CHE B   09     24.617  71.161   3.200  0.00  0.00    +0.072 A 
ATOM      2  C11 CHE B   09     25.373  71.726   2.315  0.00  0.00    +0.037 A 
ATOM      3  C12 CHE B   09     26.870  70.454   3.755  0.00  0.00    -0.011 A 
ATOM      4  C21 CHE B   09     27.309  71.634   2.103  0.00  0.00    +0.028 A 
ATOM      5  C22 CHE B   09     26.378  72.878   0.601  0.00  0.00    +0.112 A 
ATOM      6  N5  CHE B   09     25.223  71.133   3.133  0.00  0.00    -0.255 NA
ENDROOT
BRANCH   1  10
ATOM      7  C6  CHE B   09     20.759  69.408   3.069  0.00  0.00    +0.120 A 
ATOM      8  C7  CHE B   09     21.240  69.891   6.080  0.00  0.00    +0.046 A 
ATOM      9  C8  CHE B   09     22.373  70.583   8.115  0.00  0.00    +0.013 A 
ATOM     10  C9  CHE B   09     23.246  70.626   4.152  0.00  0.00    +0.001 A 
ATOM     11  C23 CHE B   09     22.441  70.437   6.121  0.00  0.00    +0.013 A 
ATOM     12  C24 CHE B   09     21.176  69.862   6.078  0.00  0.00    +0.046 A 
BRANCH   7  13
ATOM     13  O1  CHE B   09     19.433  68.894   4.023  0.00  0.00    -0.494 OA
BRANCH  13  14
ATOM     14  C5  CHE B   09     18.864  67.313   6.619  0.00  0.00    +0.210 C 
BRANCH  14  15
ATOM     15  C4  CHE B   09     17.463  68.654   1.778  0.00  0.00    -0.037 C 
BRANCH  15  19
ATOM     16  C1  CHE B   09     17.000  67.576   8.697  0.00  0.00    -0.020 C 
ATOM     17  C2  CHE B   09     16.753  69.164   8.017  0.00  0.00    -0.020 C 
ATOM     18  C3  CHE B   09     17.119  70.231   2.118  0.00  0.00    -0.079 C 
ATOM     19  N1  CHE B   09     17.002  67.566   8.695  0.00  0.00    +0.382 N 
ATOM     20  C25 CHE B   09     17.498  68.041   2.668  0.00  0.00    -0.079 C 
ATOM     21  H7  CHE B   09     16.991  68.074   7.782  0.00  0.00    -0.082 HD
ENDBRANCH  15  19
ENDBRANCH  14  15
ENDBRANCH  13  14
ENDBRANCH   7  13
ENDBRANCH   1  10
BRANCH   3  22
ATOM     22  C13 CHE B   09     27.733  69.813   4.463  0.00  0.00    +0.029 A 
ATOM     23  C14 CHE B   09     25.230  69.247   1.394  0.00  0.00    +0.114 A 
ATOM     24  N2  CHE B   09     28.001  68.925   4.395  0.00  0.00    -0.284 N 
ATOM     25  N3  CHE B   09     30.669  68.948   7.423  0.00  0.00    -0.172 NA
ATOM     26  C15 CHE B   09     26.741  68.671   2.863  0.00  0.00    +0.118 A 
ATOM     27  H16 CHE B   09     26.825  68.394   2.842  0.00  0.00    +0.188 HD
BRANCH  26  28
ATOM     28  C16 CHE B   09     26.223  68.176   2.069  0.00  0.00    +0.091 A 
ATOM     29  C17 CHE B   09     26.996  68.490   1.790  0.00  0.00    +0.030 A 
ATOM     30  C18 CHE B   09     27.684  70.473   7.431  0.00  0.00    +0.004 A 
ATOM     31  C19 CHE B   09     26.322  69.636   6.942  0.00  0.00    +0.020 A 
ATOM     32  C20 CHE B   09     25.769  69.695   8.124  0.00  0.00    +0.111 A 
ATOM     33  N4  CHE B   09     25.821  69.148   6.141  0.00  0.00    -0.253 NA
ENDBRANCH  26  28
ENDBRANCH   3  22
TORSDOF 7
ENDMDL
MODEL 2
REMARK VINA RESULT:      -8.9      2.595      5.224
REMARK  Name = dock_mp/CHEMBL2/CHEMBL202994.pdb
REMARK  7 active torsions:
REMARK  status: ('A' for Active; 'I' for Inactive)
REMARK    1  A    between atoms: N1_4  and  C4_5
REMARK    2  A    between atoms: C4_5  and  C5_6
REMARK    3  A    between atoms: C5_6  and  O1_7
REMARK    4  A    between atoms: O1_7  and  C6_8
REMARK    5  A    between atoms: C9_11  and  C10_12
REMARK    6  A    between atoms: C12_14  and  C13_15
REMARK    7  A    between atoms: C15_19  and  C16_20
REMARK                            x       y       z     vdW  Elec       q    Type
REMARK                         _______ _______ _______ _____ _____    ______ ____
ROOT
ATOM      1  C10 CHE B   09     22.893  69.580   1.811  0.00  0.00    +0.072 A 
ATOM      2  C11 CHE B   09     23.834  69.353   0.954  0.00  0.00    +0.037 A 
ATOM      3  C12 CHE B   09     24.398  71.472   2.013  0.00  0.00    -0.011 A 
ATOM      4  C21 CHE B   09     25.409  70.424   0.533  0.00  0.00    +0.028 A 
ATOM      5  C22 CHE B   09     25.305  68.618  -0.650  0.00  0.00    +0.112 A 
ATOM      6  N5  CHE B   09     23.385  69.915   1.679  0.00  0.00    -0.255 NA
ENDROOT
BRANCH   1  10
ATOM      7  C6  CHE B   09     21.404  69.118   5.754  0.00  0.00    +0.120 A 
ATOM      8  C7  CHE B   09     18.852  69.330   4.030  0.00  0.00    +0.046 A 
ATOM      9  C8  CHE B   09     17.463  69.569   2.050  0.00  0.00    +0.013 A 
ATOM     10  C9  CHE B   09     21.451  69.467   2.801  0.00  0.00    +0.001 A 
ATOM     11  C23 CHE B   09     19.315  69.474   2.802  0.00  0.00    +0.013 A 
ATOM     12  C24 CHE B   09     18.827  69.322   4.095  0.00  0.00    +0.046 A 
BRANCH   7  13
ATOM     13  O1  CHE B   09     19.980  69.010   6.698  0.00  0.00    -0.494 OA
BRANCH  13  14
ATOM     14  C5  CHE B   09     17.279  67.506   6.733  0.00  0.00    +0.210 C 
BRANCH  14  15
ATOM     15  C4  CHE B   09     21.754  68.756   9.098  0.00  0.00    -0.037 C 
BRANCH  15  19
ATOM     16  C1  CHE B   09     14.949  67.257   8.273  0.00  0.00    -0.020 C 
ATOM     17  C2  CHE B   09     15.459  68.815   8.872  0.00  0.00    -0.020 C 
ATOM     18  C3  CHE B   09     21.246  70.234   9.627  0.00  0.00    -0.079 C 
ATOM     19  N1  CHE B   09     14.952  67.248   8.270  0.00  0.00    +0.382 N 
ATOM     20  C25 CHE B   09     20.930  68.112   8.826  0.00  0.00    -0.079 C 
ATOM     21  H7  CHE B   09     15.810  67.794   8.506  0.00  0.00    -0.082 HD
ENDBRANCH  15  19
ENDBRANCH  14  15
ENDBRANCH  13  14
ENDBRANCH   7  13
ENDBRANCH   1  10
BRANCH   3  22
ATOM     22  C13 CHE B   09     24.772  72.595   2.519  0.00  0.00    +0.029 A 
ATOM     23  C14 CHE B   09     25.334  68.662   2.989  0.00  0.00    +0.114 A 
ATOM     24  N2  CHE B   09     25.356  72.753   3.225  0.00  0.00    -0.284 N 
ATOM     25  N3  CHE B   09     25.153  76.783   3.188  0.00  0.00    -0.172 NA
ATOM     26  C15 CHE B   09     25.618  70.782   3.437  0.00  0.00    +0.118 A 
ATOM     27  H16 CHE B   09     25.800  70.831   3.657  0.00  0.00    +0.188 HD
BRANCH  26  28
ATOM     28  C16 CHE B   09     25.991  69.862   3.836  0.00  0.00    +0.091 A 
ATOM     29  C17 CHE B   09     25.267  70.117   4.265  0.00  0.00    +0.030 A 
ATOM     30  C18 CHE B   09     25.302  74.836   0.528  0.00  0.00    +0.004 A 
ATOM     31  C19 CHE B   09     26.465  73.637   0.458  0.00  0.00    +0.020 A 
ATOM     32  C20 CHE B   09     27.097  74.202  -0.535  0.00  0.00    +0.111 A 
ATOM     33  N4  CHE B   09     26.822  72.722   0.866  0.00  0.00    -0.253 NA
ENDBRANCH  26  28
ENDBRANCH   3  22
TORSDOF 7
ENDMDL
MODEL 3
REMARK VINA RESULT:      -8.8      4.978      8.595
REMARK  Name = dock_mp/CHEMBL2/CHEMBL202994.pdb
REMARK  7 active torsions:
REMARK  status: ('A' for Active; 'I' for Inactive)
REMARK    1  A    between atoms: N1_4  and  C4_5
REMARK    2  A    between atoms: C4_5  and  C5_6
REMARK    3  A    between atoms: C5_6  and  O1_7
REMARK    4  A    between atoms: O1_7  and  C6_8
REMARK    5  A    between atoms: C9_11  and  C10_12
REMARK    6  A    between atoms: C12_14  and  C13_15
REMARK    7  A    between atoms: C15_19  and  C16_20
REMARK                            x       y       z     vdW  Elec       q    Type
REMARK                         _______ _______ _______ _____ _____    ______ ____
ROOT
ATOM      1  C10 CHE B   09     23.478  67.154  10.441  0.00  0.00    +0.072 A 
ATOM      2  C11 CHE B   09     24.495  66.506  10.909  0.00  0.00    +0.037 A 
ATOM      3  C12 CHE B   09     23.392  67.497  12.841  0.00  0.00    -0.011 A 
ATOM      4  C21 CHE B   09     25.094  66.311  12.754  0.00  0.00    +0.028 A 
ATOM      5  C22 CHE B   09     26.372  65.262  11.361  0.00  0.00    +0.112 A 
ATOM      6  N5  CHE B   09     23.665  67.093  11.018  0.00  0.00    -0.255 NA
ENDROOT
BRANCH   1  10
ATOM      7  C6  CHE B   09     19.387  67.137   9.324  0.00  0.00    +0.120 A 
ATOM      8  C7  CHE B   09     20.636  69.286   7.492  0.00  0.00    +0.046 A 
ATOM      9  C8  CHE B   09     22.330  70.722   6.505  0.00  0.00    +0.013 A 
ATOM     10  C9  CHE B   09     22.270  67.863   9.387  0.00  0.00    +0.001 A 
ATOM     11  C23 CHE B   09     21.909  69.291   7.839  0.00  0.00    +0.013 A 
ATOM     12  C24 CHE B   09     20.568  69.286   7.473  0.00  0.00    +0.046 A 
BRANCH   7  13
ATOM     13  O1  CHE B   09     18.228  67.847   8.283  0.00  0.00    -0.494 OA
BRANCH  13  14
ATOM     14  C5  CHE B   09     17.672  68.203   5.262  0.00  0.00    +0.210 C 
BRANCH  14  15
ATOM     15  C4  CHE B   09     15.898  67.982  10.160  0.00  0.00    -0.037 C 
BRANCH  15  19
ATOM     16  C1  CHE B   09     15.848  68.001   3.143  0.00  0.00    -0.020 C 
ATOM     17  C2  CHE B   09     15.572  66.529   4.039  0.00  0.00    -0.020 C 
ATOM     18  C3  CHE B   09     15.586  66.366  10.043  0.00  0.00    -0.079 C 
ATOM     19  N1  CHE B   09     15.850  68.010   3.144  0.00  0.00    +0.382 N 
ATOM     20  C25 CHE B   09     15.981  68.455   9.192  0.00  0.00    -0.079 C 
ATOM     21  H7  CHE B   09     15.787  67.645   4.120  0.00  0.00    -0.082 HD
ENDBRANCH  15  19
ENDBRANCH  14  15
ENDBRANCH  13  14
ENDBRANCH   7  13
ENDBRANCH   1  10
BRANCH   3  22
ATOM     22  C13 CHE B   09     22.876  67.982  13.916  0.00  0.00    +0.029 A 
ATOM     23  C14 CHE B   09     25.458  68.963  11.023  0.00  0.00    +0.114 A 
ATOM     24  N2  CHE B   09     23.023  68.809  14.314  0.00  0.00    -0.284 N 
ATOM     25  N3  CHE B   09     20.530  68.335  17.452  0.00  0.00    -0.172 NA
ATOM     26  C15 CHE B   09     24.309  69.273  12.855  0.00  0.00    +0.118 A 
ATOM     27  H16 CHE B   09     24.355  69.531  12.979  0.00  0.00    +0.188 HD
BRANCH  26  28
ATOM     28  C16 CHE B   09     25.013  69.847  12.290  0.00  0.00    +0.091 A 
ATOM     29  C17 CHE B   09     25.419  69.390  12.923  0.00  0.00    +0.030 A 
ATOM     30  C18 CHE B   09     19.922  67.378  14.326  0.00  0.00    +0.004 A 
ATOM     31  C19 CHE B   09     20.184  68.451  13.071  0.00  0.00    +0.020 A 
ATOM     32  C20 CHE B   09     18.917  68.511  12.758  0.00  0.00    +0.111 A 
ATOM     33  N4  CHE B   09     20.897  69.015  12.521  0.00  0.00    -0.253 NA
ENDBRANCH  26  28
ENDBRANCH   3  22
TORSDOF 7
ENDMDL
MODEL 4
REMARK VINA RESULT:      -8.7      3.305      7.021
REMARK  Name = dock_mp/CHEMBL2/CHEMBL202994.pdb
REMARK  7 active torsions:
REMARK  status: ('A' for Active; 'I' for Inactive)
REMARK    1  A    between atoms: N1_4  and  C4_5
REMARK    2  A    between atoms: C4_5  and  C5_6
REMARK    3  A    between atoms: C5_6  and  O1_7
REMARK    4  A    between atoms: O1_7  and  C6_8
REMARK    5  A    between atoms: C9_11  and  C10_12
REMARK    6  A    between atoms: C12_14  and  C13_15
REMARK    7  A    between atoms: C15_19  and  C16_20
REMARK                            x       y       z     vdW  Elec       q    Type
REMARK                         _______ _______ _______ _____ _____    ______ ____
ROOT
ATOM      1  C10 CHE B   09     23.023  67.490  10.344  0.00  0.00    +0.072 A 
ATOM      2  C11 CHE B   09     23.545  66.874  11.354  0.00  0.00    +0.037 A 
ATOM      3  C12 CHE B   09     25.299  68.319  10.478  0.00  0.00    -0.011 A 
ATOM      4  C21 CHE B   09     25.345  67.012  12.091  0.00  0.00    +0.028 A 
ATOM      5  C22 CHE B   09     24.117  65.608  13.183  0.00  0.00    +0.112 A 
ATOM      6  N5  CHE B   09     23.586  67.533  10.574  0.00  0.00    -0.255 NA
ENDROOT
BRANCH   1  10
ATOM      7  C6  CHE B   09     19.189  67.023   8.594  0.00  0.00    +0.120 A 
ATOM      8  C7  CHE B   09     20.474  69.294   6.943  0.00  0.00    +0.046 A 
ATOM      9  C8  CHE B   09     22.138  70.906   6.211  0.00  0.00    +0.013 A 
ATOM     10  C9  CHE B   09     21.929  68.061   9.099  0.00  0.00    +0.001 A 
ATOM     11  C23 CHE B   09     21.667  69.439   7.488  0.00  0.00    +0.013 A 
ATOM     12  C24 CHE B   09     20.411  69.286   6.914  0.00  0.00    +0.046 A 
BRANCH   7  13
ATOM     13  O1  CHE B   09     18.141  67.600   7.369  0.00  0.00    -0.494 OA
BRANCH  13  14
ATOM     14  C5  CHE B   09     18.148  68.170   4.330  0.00  0.00    +0.210 C 
BRANCH  14  15
ATOM     15  C4  CHE B   09     15.899  68.734   9.000  0.00  0.00    -0.037 C 
BRANCH  15  19
ATOM     16  C1  CHE B   09     16.899  69.268   2.075  0.00  0.00    -0.020 C 
ATOM     17  C2  CHE B   09     15.791  68.092   2.734  0.00  0.00    -0.020 C 
ATOM     18  C3  CHE B   09     14.837  67.525   8.637  0.00  0.00    -0.079 C 
ATOM     19  N1  CHE B   09     16.905  69.275   2.077  0.00  0.00    +0.382 N 
ATOM     20  C25 CHE B   09     16.351  69.162   8.116  0.00  0.00    -0.079 C 
ATOM     21  H7  CHE B   09     16.524  68.927   2.985  0.00  0.00    -0.082 HD
ENDBRANCH  15  19
ENDBRANCH  14  15
ENDBRANCH  13  14
ENDBRANCH   7  13
ENDBRANCH   1  10
BRANCH   3  22
ATOM     22  C13 CHE B   09     26.282  69.049  10.083  0.00  0.00    +0.029 A 
ATOM     23  C14 CHE B   09     22.941  69.296  12.270  0.00  0.00    +0.114 A 
ATOM     24  N2  CHE B   09     26.450  69.948  10.255  0.00  0.00    -0.284 N 
ATOM     25  N3  CHE B   09     29.893  70.252   8.174  0.00  0.00    -0.172 NA
ATOM     26  C15 CHE B   09     24.774  70.042  11.343  0.00  0.00    +0.118 A 
ATOM     27  H16 CHE B   09     24.827  70.322  11.397  0.00  0.00    +0.188 HD
BRANCH  26  28
ATOM     28  C16 CHE B   09     24.006  70.461  11.958  0.00  0.00    +0.091 A 
ATOM     29  C17 CHE B   09     24.684  70.188  12.448  0.00  0.00    +0.030 A 
ATOM     30  C18 CHE B   09     27.167  68.530   7.221  0.00  0.00    +0.004 A 
ATOM     31  C19 CHE B   09     25.659  69.248   7.302  0.00  0.00    +0.020 A 
ATOM     32  C20 CHE B   09     25.487  69.207   6.008  0.00  0.00    +0.111 A 
ATOM     33  N4  CHE B   09     24.906  69.661   7.928  0.00  0.00    -0.253 NA
ENDBRANCH  26  28
ENDBRANCH   3  22
TORSDOF 7
ENDMDL
MODEL 5
REMARK VINA RESULT:      -8.4      3.320      9.269
REMARK  Name = dock_mp/CHEMBL2/CHEMBL202994.pdb
REMARK  7 active torsions:
REMARK  status: ('A' for Active; 'I' for Inactive)
REMARK    1  A    between atoms: N1_4  and  C4_5
REMARK    2  A    between atoms: C4_5  and  C5_6
REMARK    3  A    between atoms: C5_6  and  O1_7
REMARK    4  A    between atoms: O1_7  and  C6_8
REMARK    5  A    between atoms: C9_11  and  C10_12
REMARK    6  A    between atoms: C12_14  and  C13_15
REMARK    7  A    between atoms: C15_19  and  C16_20
REMARK                            x       y       z     vdW  Elec       q    Type
REMARK                         _______ _______ _______ _____ _____    ______ ____
ROOT
ATOM      1  C10 CHE B   09     24.573  68.543   8.270  0.00  0.00    +0.072 A 
ATOM      2  C11 CHE B   09     24.419  67.905   9.384  0.00  0.00    +0.037 A 
ATOM      3  C12 CHE B   09     22.190  68.623   8.715  0.00  0.00    -0.011 A 
ATOM      4  C21 CHE B   09     22.786  67.546  10.387  0.00  0.00    +0.028 A 
ATOM      5  C22 CHE B   09     24.538  66.723  11.350  0.00  0.00    +0.112 A 
ATOM      6  N5  CHE B   09     24.062  68.431   8.583  0.00  0.00    -0.255 NA
ENDROOT
BRANCH   1  10
ATOM      7  C6  CHE B   09     27.597  71.115   6.780  0.00  0.00    +0.120 A 
ATOM      8  C7  CHE B   09     26.015  70.309   4.254  0.00  0.00    +0.046 A 
ATOM      9  C8  CHE B   09     24.323  69.230   2.884  0.00  0.00    +0.013 A 
ATOM     10  C9  CHE B   09     25.246  69.296   6.836  0.00  0.00    +0.001 A 
ATOM     11  C23 CHE B   09     25.073  69.508   4.718  0.00  0.00    +0.013 A 
ATOM     12  C24 CHE B   09     26.065  70.352   4.230  0.00  0.00    +0.046 A 
BRANCH   7  13
ATOM     13  O1  CHE B   09     28.234  71.837   5.364  0.00  0.00    -0.494 OA
BRANCH  13  14
ATOM     14  C5  CHE B   09     27.664  74.207   3.461  0.00  0.00    +0.210 C 
BRANCH  14  15
ATOM     15  C4  CHE B   09     30.418  69.931   4.610  0.00  0.00    -0.037 C 
BRANCH  15  19
ATOM     16  C1  CHE B   09     26.041  74.203   1.172  0.00  0.00    -0.020 C 
ATOM     17  C2  CHE B   09     25.736  72.487   1.259  0.00  0.00    -0.020 C 
ATOM     18  C3  CHE B   09     29.395  68.715   4.166  0.00  0.00    -0.079 C 
ATOM     19  N1  CHE B   09     26.047  74.211   1.175  0.00  0.00    +0.382 N 
ATOM     20  C25 CHE B   09     30.090  70.895   4.248  0.00  0.00    -0.079 C 
ATOM     21  H7  CHE B   09     26.443  73.328   1.566  0.00  0.00    -0.082 HD
ENDBRANCH  15  19
ENDBRANCH  14  15
ENDBRANCH  13  14
ENDBRANCH   7  13
ENDBRANCH   1  10
BRANCH   3  22
ATOM     22  C13 CHE B   09     20.979  68.961   8.440  0.00  0.00    +0.029 A 
ATOM     23  C14 CHE B   09     24.250  70.404  10.233  0.00  0.00    +0.114 A 
ATOM     24  N2  CHE B   09     20.533  69.753   8.636  0.00  0.00    -0.284 N 
ATOM     25  N3  CHE B   09     16.989  68.795   6.962  0.00  0.00    -0.172 NA
ATOM     26  C15 CHE B   09     22.183  70.449   9.527  0.00  0.00    +0.118 A 
ATOM     27  H16 CHE B   09     22.044  70.696   9.588  0.00  0.00    +0.188 HD
BRANCH  26  28
ATOM     28  C16 CHE B   09     22.824  71.125  10.053  0.00  0.00    +0.091 A 
ATOM     29  C17 CHE B   09     22.372  70.620  10.615  0.00  0.00    +0.030 A 
ATOM     30  C18 CHE B   09     19.945  68.148   5.693  0.00  0.00    +0.004 A 
ATOM     31  C19 CHE B   09     21.078  69.374   5.607  0.00  0.00    +0.020 A 
ATOM     32  C20 CHE B   09     21.064  69.398   4.301  0.00  0.00    +0.111 A 
ATOM     33  N4  CHE B   09     21.709  70.039   6.146  0.00  0.00    -0.253 NA
ENDBRANCH  26  28
ENDBRANCH   3  22
TORSDOF 7
ENDMDL
MODEL 6
REMARK VINA RESULT:      -8.4      2.514      4.330
REMARK  Name = dock_mp/CHEMBL2/CHEMBL202994.pdb
REMARK  7 active torsions:
REMARK  status: ('A' for Active; 'I' for Inactive)
REMARK    1  A    between atoms: N1_4  and  C4_5
REMARK    2  A    between atoms: C4_5  and  C5_6
REMARK    3  A    between atoms: C5_6  and  O1_7
REMARK    4  A    between atoms: O1_7  and  C6_8
REMARK    5  A    between atoms: C9_11  and  C10_12
REMARK    6  A    between atoms: C12_14  and  C13_15
REMARK    7  A    between atoms: C15_19  and  C16_20
REMARK                            x       y       z     vdW  Elec       q    Type
REMARK                         _______ _______ _______ _____ _____    ______ ____
ROOT
ATOM      1  C10 CHE B   09     23.049  69.653   2.766  0.00  0.00    +0.072 A 
ATOM      2  C11 CHE B   09     23.711  69.385   1.688  0.00  0.00    +0.037 A 
ATOM      3  C12 CHE B   09     24.561  71.528   2.474  0.00  0.00    -0.011 A 
ATOM      4  C21 CHE B   09     25.110  70.419   0.806  0.00  0.00    +0.028 A 
ATOM      5  C22 CHE B   09     24.668  68.578  -0.238  0.00  0.00    +0.112 A 
ATOM      6  N5  CHE B   09     23.487  69.977   2.490  0.00  0.00    -0.255 NA
ENDROOT
BRANCH   1  10
ATOM      7  C6  CHE B   09     19.138  68.613   4.029  0.00  0.00    +0.120 A 
ATOM      8  C7  CHE B   09     20.478  69.671   6.601  0.00  0.00    +0.046 A 
ATOM      9  C8  CHE B   09     22.195  70.596   8.050  0.00  0.00    +0.013 A 
ATOM     10  C9  CHE B   09     21.943  69.593   4.125  0.00  0.00    +0.001 A 
ATOM     11  C23 CHE B   09     21.695  69.995   6.208  0.00  0.00    +0.013 A 
ATOM     12  C24 CHE B   09     20.413  69.654   6.622  0.00  0.00    +0.046 A 
BRANCH   7  13
ATOM     13  O1  CHE B   09     18.078  68.565   5.373  0.00  0.00    -0.494 OA
BRANCH  13  14
ATOM     14  C5  CHE B   09     18.156  68.078   8.425  0.00  0.00    +0.210 C 
BRANCH  14  15
ATOM     15  C4  CHE B   09     15.631  67.695   3.879  0.00  0.00    -0.037 C 
BRANCH  15  19
ATOM     16  C1  CHE B   09     16.759  67.571  10.804  0.00  0.00    -0.020 C 
ATOM     17  C2  CHE B   09     16.017  66.217   9.991  0.00  0.00    -0.020 C 
ATOM     18  C3  CHE B   09     14.992  66.186   4.073  0.00  0.00    -0.079 C 
ATOM     19  N1  CHE B   09     16.763  67.580  10.803  0.00  0.00    +0.382 N 
ATOM     20  C25 CHE B   09     15.978  68.116   4.812  0.00  0.00    -0.079 C 
ATOM     21  H7  CHE B   09     16.458  67.259   9.857  0.00  0.00    -0.082 HD
ENDBRANCH  15  19
ENDBRANCH  14  15
ENDBRANCH  13  14
ENDBRANCH   7  13
ENDBRANCH   1  10
BRANCH   3  22
ATOM     22  C13 CHE B   09     25.069  72.660   2.816  0.00  0.00    +0.029 A 
ATOM     23  C14 CHE B   09     25.700  68.736   3.270  0.00  0.00    +0.114 A 
ATOM     24  N2  CHE B   09     25.824  72.831   3.331  0.00  0.00    -0.284 N 
ATOM     25  N3  CHE B   09     25.656  76.860   3.194  0.00  0.00    -0.172 NA
ATOM     26  C15 CHE B   09     26.115  70.864   3.542  0.00  0.00    +0.118 A 
ATOM     27  H16 CHE B   09     26.350  70.917   3.703  0.00  0.00    +0.188 HD
BRANCH  26  28
ATOM     28  C16 CHE B   09     26.573  69.951   3.860  0.00  0.00    +0.091 A 
ATOM     29  C17 CHE B   09     25.968  70.217   4.442  0.00  0.00    +0.030 A 
ATOM     30  C18 CHE B   09     25.117  74.859   0.706  0.00  0.00    +0.004 A 
ATOM     31  C19 CHE B   09     26.234  73.656   0.391  0.00  0.00    +0.020 A 
ATOM     32  C20 CHE B   09     26.615  74.200  -0.734  0.00  0.00    +0.111 A 
ATOM     33  N4  CHE B   09     26.679  72.750   0.723  0.00  0.00    -0.253 NA
ENDBRANCH  26  28
ENDBRANCH   3  22
TORSDOF 7
ENDMDL
MODEL 7
REMARK VINA RESULT:      -8.3      6.322     10.081
REMARK  Name = dock_mp/CHEMBL2/CHEMBL202994.pdb
REMARK  7 active torsions:
REMARK  status: ('A' for Active; 'I' for Inactive)
REMARK    1  A    between atoms: N1_4  and  C4_5
REMARK    2  A    between atoms: C4_5  and  C5_6
REMARK    3  A    between atoms: C5_6  and  O1_7
REMARK    4  A    between atoms: O1_7  and  C6_8
REMARK    5  A    between atoms: C9_11  and  C10_12
REMARK    6  A    between atoms: C12_14  and  C13_15
REMARK    7  A    between atoms: C15_19  and  C16_20
REMARK                            x       y       z     vdW  Elec       q    Type
REMARK                         _______ _______ _______ _____ _____    ______ ____
ROOT
ATOM      1  C10 CHE B   09     23.792  67.973  10.324  0.00  0.00    +0.072 A 
ATOM      2  C11 CHE B   09     24.350  68.592   9.335  0.00  0.00    +0.037 A 
ATOM      3  C12 CHE B   09     21.969  68.539   8.827  0.00  0.00    -0.011 A 
ATOM      4  C21 CHE B   09     23.536  69.355   7.736  0.00  0.00    +0.028 A 
ATOM      5  C22 CHE B   09     25.680  69.632   7.776  0.00  0.00    +0.112 A 
ATOM      6  N5  CHE B   09     23.538  68.212   9.823  0.00  0.00    -0.255 NA
ENDROOT
BRANCH   1  10
ATOM      7  C6  CHE B   09     21.426  67.815  13.838  0.00  0.00    +0.120 A 
ATOM      8  C7  CHE B   09     23.347  65.417  14.143  0.00  0.00    +0.046 A 
ATOM      9  C8  CHE B   09     25.126  63.852  13.606  0.00  0.00    +0.013 A 
ATOM     10  C9  CHE B   09     23.493  67.111  11.821  0.00  0.00    +0.001 A 
ATOM     11  C23 CHE B   09     24.084  65.466  13.049  0.00  0.00    +0.013 A 
ATOM     12  C24 CHE B   09     23.308  65.414  14.201  0.00  0.00    +0.046 A 
BRANCH   7  13
ATOM     13  O1  CHE B   09     21.155  66.955  15.294  0.00  0.00    -0.494 OA
BRANCH  13  14
ATOM     14  C5  CHE B   09     20.111  64.206  16.252  0.00  0.00    +0.210 C 
BRANCH  14  15
ATOM     15  C4  CHE B   09     22.869  68.534  17.175  0.00  0.00    -0.037 C 
BRANCH  15  19
ATOM     16  C1  CHE B   09     21.272  61.712  16.800  0.00  0.00    -0.020 C 
ATOM     17  C2  CHE B   09     22.801  62.310  16.208  0.00  0.00    -0.020 C 
ATOM     18  C3  CHE B   09     24.299  68.120  16.464  0.00  0.00    -0.079 C 
ATOM     19  N1  CHE B   09     21.264  61.714  16.804  0.00  0.00    +0.382 N 
ATOM     20  C25 CHE B   09     22.225  67.680  17.328  0.00  0.00    -0.079 C 
ATOM     21  H7  CHE B   09     21.812  62.596  16.699  0.00  0.00    -0.082 HD
ENDBRANCH  15  19
ENDBRANCH  14  15
ENDBRANCH  13  14
ENDBRANCH   7  13
ENDBRANCH   1  10
BRANCH   3  22
ATOM     22  C13 CHE B   09     20.730  68.557   8.479  0.00  0.00    +0.029 A 
ATOM     23  C14 CHE B   09     23.383  70.720  10.550  0.00  0.00    +0.114 A 
ATOM     24  N2  CHE B   09     20.077  69.191   8.671  0.00  0.00    -0.284 N 
ATOM     25  N3  CHE B   09     17.025  67.417   6.718  0.00  0.00    -0.172 NA
ATOM     26  C15 CHE B   09     21.425  70.252   9.700  0.00  0.00    +0.118 A 
ATOM     27  H16 CHE B   09     21.221  70.450   9.760  0.00  0.00    +0.188 HD
BRANCH  26  28
ATOM     28  C16 CHE B   09     21.828  71.045  10.294  0.00  0.00    +0.091 A 
ATOM     29  C17 CHE B   09     21.609  70.357  10.798  0.00  0.00    +0.030 A 
ATOM     30  C18 CHE B   09     19.875  67.757   5.654  0.00  0.00    +0.004 A 
ATOM     31  C19 CHE B   09     20.517  69.300   5.699  0.00  0.00    +0.020 A 
ATOM     32  C20 CHE B   09     20.417  69.460   4.406  0.00  0.00    +0.111 A 
ATOM     33  N4  CHE B   09     20.916  70.077   6.304  0.00  0.00    -0.253 NA
ENDBRANCH  26  28
ENDBRANCH   3  22
TORSDOF 7
ENDMDL
MODEL 8
REMARK VINA RESULT:      -8.2      4.208      6.680
REMARK  Name = dock_mp/CHEMBL2/CHEMBL202994.pdb
REMARK  7 active torsions:
REMARK  status: ('A' for Active; 'I' for Inactive)
REMARK    1  A    between atoms: N1_4  and  C4_5
REMARK    2  A    between atoms: C4_5  and  C5_6
REMARK    3  A    between atoms: C5_6  and  O1_7
REMARK    4  A    between atoms: O1_7  and  C6_8
REMARK    5  A    between atoms: C9_11  and  C10_12
REMARK    6  A    between atoms: C12_14  and  C13_15
REMARK    7  A    between atoms: C15_19  and  C16_20
REMARK                            x       y       z     vdW  Elec       q    Type
REMARK                         _______ _______ _______ _____ _____    ______ ____
ROOT
ATOM      1  C10 CHE B   09     21.379  67.886  10.314  0.00  0.00    +0.072 A 
ATOM      2  C11 CHE B   09     22.287  68.072  11.215  0.00  0.00    +0.037 A 
ATOM      3  C12 CHE B   09     23.413  68.333   9.071  0.00  0.00    -0.011 A 
ATOM      4  C21 CHE B   09     24.181  68.480  10.995  0.00  0.00    +0.028 A 
ATOM      5  C22 CHE B   09     23.609  68.338  13.075  0.00  0.00    +0.112 A 
ATOM      6  N5  CHE B   09     21.971  68.013  10.245  0.00  0.00    -0.255 NA
ENDROOT
BRANCH   1  10
ATOM      7  C6  CHE B   09     19.459  67.672   6.540  0.00  0.00    +0.120 A 
ATOM      8  C7  CHE B   09     17.213  66.978   8.541  0.00  0.00    +0.046 A 
ATOM      9  C8  CHE B   09     16.120  66.560  10.671  0.00  0.00    +0.013 A 
ATOM     10  C9  CHE B   09     19.868  67.570   9.483  0.00  0.00    +0.001 A 
ATOM     11  C23 CHE B   09     17.810  67.044   9.716  0.00  0.00    +0.013 A 
ATOM     12  C24 CHE B   09     17.181  66.975   8.479  0.00  0.00    +0.046 A 
BRANCH   7  13
ATOM     13  O1  CHE B   09     17.970  67.359   5.753  0.00  0.00    -0.494 OA
BRANCH  13  14
ATOM     14  C5  CHE B   09     15.396  65.692   6.149  0.00  0.00    +0.210 C 
BRANCH  14  15
ATOM     15  C4  CHE B   09     18.052  69.284   3.459  0.00  0.00    -0.037 C 
BRANCH  15  19
ATOM     16  C1  CHE B   09     13.274  64.350   4.898  0.00  0.00    -0.020 C 
ATOM     17  C2  CHE B   09     14.314  64.213   3.503  0.00  0.00    -0.020 C 
ATOM     18  C3  CHE B   09     18.446  68.358   2.151  0.00  0.00    -0.079 C 
ATOM     19  N1  CHE B   09     13.272  64.356   4.906  0.00  0.00    +0.382 N 
ATOM     20  C25 CHE B   09     17.256  68.848   4.045  0.00  0.00    -0.079 C 
ATOM     21  H7  CHE B   09     14.043  64.853   4.407  0.00  0.00    -0.082 HD
ENDBRANCH  15  19
ENDBRANCH  14  15
ENDBRANCH  13  14
ENDBRANCH   7  13
ENDBRANCH   1  10
BRANCH   3  22
ATOM     22  C13 CHE B   09     24.088  68.487   7.986  0.00  0.00    +0.029 A 
ATOM     23  C14 CHE B   09     21.979  70.617  10.635  0.00  0.00    +0.114 A 
ATOM     24  N2  CHE B   09     24.255  69.266   7.507  0.00  0.00    -0.284 N 
ATOM     25  N3  CHE B   09     26.467  67.613   4.565  0.00  0.00    -0.172 NA
ATOM     26  C15 CHE B   09     23.195  70.306   8.847  0.00  0.00    +0.118 A 
ATOM     27  H16 CHE B   09     23.248  70.549   8.697  0.00  0.00    +0.188 HD
BRANCH  26  28
ATOM     28  C16 CHE B   09     22.735  71.149   9.318  0.00  0.00    +0.091 A 
ATOM     29  C17 CHE B   09     22.161  70.727   8.801  0.00  0.00    +0.030 A 
ATOM     30  C18 CHE B   09     26.725  66.994   7.594  0.00  0.00    +0.004 A 
ATOM     31  C19 CHE B   09     26.891  68.297   8.629  0.00  0.00    +0.020 A 
ATOM     32  C20 CHE B   09     28.148  68.039   8.874  0.00  0.00    +0.111 A 
ATOM     33  N4  CHE B   09     26.417  69.130   9.088  0.00  0.00    -0.253 NA
ENDBRANCH  26  28
ENDBRANCH   3  22
TORSDOF 7
ENDMDL
MODEL 9
REMARK VINA RESULT:      -7.8      6.215     10.096
REMARK  Name = dock_mp/CHEMBL2/CHEMBL202994.pdb
REMARK  7 active torsions:
REMARK  status: ('A' for Active; 'I' for Inactive)
REMARK    1  A    between atoms: N1_4  and  C4_5
REMARK    2  A    between atoms: C4_5  and  C5_6
REMARK    3  A    between atoms: C5_6  and  O1_7
REMARK    4  A    between atoms: O1_7  and  C6_8
REMARK    5  A    between atoms: C9_11  and  C10_12
REMARK    6  A    between atoms: C12_14  and  C13_15
REMARK    7  A    between atoms: C15_19  and  C16_20
REMARK                            x       y       z     vdW  Elec       q    Type
REMARK                         _______ _______ _______ _____ _____    ______ ____
ROOT
ATOM      1  C10 CHE B   09     23.668  68.051  10.331  0.00  0.00    +0.072 A 
ATOM      2  C11 CHE B   09     24.268  68.580   9.314  0.00  0.00    +0.037 A 
ATOM      3  C12 CHE B   09     21.898  68.558   8.752  0.00  0.00    -0.011 A 
ATOM      4  C21 CHE B   09     23.514  69.246   7.643  0.00  0.00    +0.028 A 
ATOM      5  C22 CHE B   09     25.663  69.462   7.717  0.00  0.00    +0.112 A 
ATOM      6  N5  CHE B   09     23.433  68.259   9.808  0.00  0.00    -0.255 NA
ENDROOT
BRANCH   1  10
ATOM      7  C6  CHE B   09     24.831  65.081  13.124  0.00  0.00    +0.120 A 
ATOM      8  C7  CHE B   09     22.367  66.398  14.441  0.00  0.00    +0.046 A 
ATOM      9  C8  CHE B   09     20.481  67.901  14.730  0.00  0.00    +0.013 A 
ATOM     10  C9  CHE B   09     23.309  67.311  11.879  0.00  0.00    +0.001 A 
ATOM     11  C23 CHE B   09     22.006  67.322  13.571  0.00  0.00    +0.013 A 
ATOM     12  C24 CHE B   09     22.387  66.349  14.487  0.00  0.00    +0.046 A 
BRANCH   7  13
ATOM     13  O1  CHE B   09     24.457  64.376  14.640  0.00  0.00    -0.494 OA
BRANCH  13  14
ATOM     14  C5  CHE B   09     22.233  62.695  15.977  0.00  0.00    +0.210 C 
BRANCH  14  15
ATOM     15  C4  CHE B   09     26.260  65.978  16.416  0.00  0.00    -0.037 C 
BRANCH  15  19
ATOM     16  C1  CHE B   09     19.870  63.246  17.385  0.00  0.00    -0.020 C 
ATOM     17  C2  CHE B   09     20.077  64.944  17.039  0.00  0.00    -0.020 C 
ATOM     18  C3  CHE B   09     25.484  67.416  16.187  0.00  0.00    -0.079 C 
ATOM     19  N1  CHE B   09     19.875  63.237  17.386  0.00  0.00    +0.382 N 
ATOM     20  C25 CHE B   09     25.573  65.169  16.621  0.00  0.00    -0.079 C 
ATOM     21  H7  CHE B   09     20.614  63.950  17.197  0.00  0.00    -0.082 HD
ENDBRANCH  15  19
ENDBRANCH  14  15
ENDBRANCH  13  14
ENDBRANCH   7  13
ENDBRANCH   1  10
BRANCH   3  22
ATOM     22  C13 CHE B   09     20.669  68.586   8.372  0.00  0.00    +0.029 A 
ATOM     23  C14 CHE B   09     23.303  70.760  10.454  0.00  0.00    +0.114 A 
ATOM     24  N2  CHE B   09     20.021  69.234   8.532  0.00  0.00    -0.284 N 
ATOM     25  N3  CHE B   09     16.990  67.458   6.548  0.00  0.00    -0.172 NA
ATOM     26  C15 CHE B   09     21.360  70.300   9.568  0.00  0.00    +0.118 A 
ATOM     27  H16 CHE B   09     21.158  70.502   9.618  0.00  0.00    +0.188 HD
BRANCH  26  28
ATOM     28  C16 CHE B   09     21.761  71.102  10.152  0.00  0.00    +0.091 A 
ATOM     29  C17 CHE B   09     21.519  70.430  10.667  0.00  0.00    +0.030 A 
ATOM     30  C18 CHE B   09     19.871  67.727   5.547  0.00  0.00    +0.004 A 
ATOM     31  C19 CHE B   09     20.537  69.261   5.570  0.00  0.00    +0.020 A 
ATOM     32  C20 CHE B   09     20.472  69.390   4.272  0.00  0.00    +0.111 A 
ATOM     33  N4  CHE B   09     20.933  70.047   6.166  0.00  0.00    -0.253 NA
ENDBRANCH  26  28
ENDBRANCH   3  22
TORSDOF 7
ENDMDL
MODEL 10
REMARK VINA RESULT:      -7.7      3.472      9.677
REMARK  Name = dock_mp/CHEMBL2/CHEMBL202994.pdb
REMARK  7 active torsions:
REMARK  status: ('A' for Active; 'I' for Inactive)
REMARK    1  A    between atoms: N1_4  and  C4_5
REMARK    2  A    between atoms: C4_5  and  C5_6
REMARK    3  A    between atoms: C5_6  and  O1_7
REMARK    4  A    between atoms: O1_7  and  C6_8
REMARK    5  A    between atoms: C9_11  and  C10_12
REMARK    6  A    between atoms: C12_14  and  C13_15
REMARK    7  A    between atoms: C15_19  and  C16_20
REMARK                            x       y       z     vdW  Elec       q    Type
REMARK                         _______ _______ _______ _____ _____    ______ ____
ROOT
ATOM      1  C10 CHE B   09     24.463  68.557   8.183  0.00  0.00    +0.072 A 
ATOM      2  C11 CHE B   09     24.337  67.922   9.302  0.00  0.00    +0.037 A 
ATOM      3  C12 CHE B   09     22.093  68.649   8.695  0.00  0.00    -0.011 A 
ATOM      4  C21 CHE B   09     22.732  67.571  10.352  0.00  0.00    +0.028 A 
ATOM      5  C22 CHE B   09     24.506  66.742  11.266  0.00  0.00    +0.112 A 
ATOM      6  N5  CHE B   09     23.961  68.448   8.511  0.00  0.00    -0.255 NA
ENDROOT
BRANCH   1  10
ATOM      7  C6  CHE B   09     27.579  70.936   6.568  0.00  0.00    +0.120 A 
ATOM      8  C7  CHE B   09     25.776  70.344   4.133  0.00  0.00    +0.046 A 
ATOM      9  C8  CHE B   09     23.917  69.448   2.850  0.00  0.00    +0.013 A 
ATOM     10  C9  CHE B   09     25.099  69.304   6.730  0.00  0.00    +0.001 A 
ATOM     11  C23 CHE B   09     24.806  69.603   4.636  0.00  0.00    +0.013 A 
ATOM     12  C24 CHE B   09     25.827  70.383   4.106  0.00  0.00    +0.046 A 
BRANCH   7  13
ATOM     13  O1  CHE B   09     28.179  71.655   5.134  0.00  0.00    -0.494 OA
BRANCH  13  14
ATOM     14  C5  CHE B   09     28.199  74.392   3.696  0.00  0.00    +0.210 C 
BRANCH  14  15
ATOM     15  C4  CHE B   09     29.737  69.414   3.900  0.00  0.00    -0.037 C 
BRANCH  15  19
ATOM     16  C1  CHE B   09     29.769  76.352   4.950  0.00  0.00    -0.020 C 
ATOM     17  C2  CHE B   09     30.499  75.266   6.104  0.00  0.00    -0.020 C 
ATOM     18  C3  CHE B   09     30.545  69.309   5.335  0.00  0.00    -0.079 C 
ATOM     19  N1  CHE B   09     29.764  76.352   4.941  0.00  0.00    +0.382 N 
ATOM     20  C25 CHE B   09     29.506  70.435   3.633  0.00  0.00    -0.079 C 
ATOM     21  H7  CHE B   09     29.941  75.338   5.113  0.00  0.00    -0.082 HD
ENDBRANCH  15  19
ENDBRANCH  14  15
ENDBRANCH  13  14
ENDBRANCH   7  13
ENDBRANCH   1  10
BRANCH   3  22
ATOM     22  C13 CHE B   09     20.877  68.991   8.453  0.00  0.00    +0.029 A 
ATOM     23  C14 CHE B   09     24.191  70.405  10.192  0.00  0.00    +0.114 A 
ATOM     24  N2  CHE B   09     20.437  69.781   8.672  0.00  0.00    -0.284 N 
ATOM     25  N3  CHE B   09     16.853  68.852   7.067  0.00  0.00    -0.172 NA
ATOM     26  C15 CHE B   09     22.108  70.462   9.534  0.00  0.00    +0.118 A 
ATOM     27  H16 CHE B   09     21.971  70.708   9.602  0.00  0.00    +0.188 HD
BRANCH  26  28
ATOM     28  C16 CHE B   09     22.761  71.129  10.056  0.00  0.00    +0.091 A 
ATOM     29  C17 CHE B   09     22.320  70.618  10.620  0.00  0.00    +0.030 A 
ATOM     30  C18 CHE B   09     19.783  68.217   5.719  0.00  0.00    +0.004 A 
ATOM     31  C19 CHE B   09     20.917  69.442   5.625  0.00  0.00    +0.020 A 
ATOM     32  C20 CHE B   09     20.874  69.483   4.320  0.00  0.00    +0.111 A 
ATOM     33  N4  CHE B   09     21.560  70.098   6.159  0.00  0.00    -0.253 NA
ENDBRANCH  26  28
ENDBRANCH   3  22
TORSDOF 7
ENDMDL
