MODEL 1
REMARK VINA RESULT:     -10.3      0.000      0.000
REMARK  Name = dock_mp/CHEMBL2/CHEMBL205271.pdb
REMARK  6 active torsions:
REMARK  status: ('A' for Active; 'I' for Inactive)
REMARK    1  A    between atoms: C1_1  and  N1_2
REMARK    2  A    between atoms: N1_2  and  C2_3
REMARK    3  A    between atoms: C7_9  and  C8_11
REMARK    4  A    between atoms: C11_14  and  C12_15
REMARK    5  A    between atoms: C14_17  and  C15_18
REMARK    6  A    between atoms: C17_22  and  C18_23
REMARK                            x       y       z     vdW  Elec       q    Type
REMARK                         _______ _______ _______ _____ _____    ______ ____
ROOT
ATOM      1  C12 CHE B   02     22.403  69.587   2.565  0.00  0.00    +0.072 A 
ATOM      2  C13 CHE B   02     23.397  69.574   2.296  0.00  0.00    +0.037 A 
ATOM      3  C14 CHE B   02     24.922  69.673   2.911  0.00  0.00    -0.011 A 
ATOM      4  C23 CHE B   02     25.725  69.900   4.752  0.00  0.00    +0.028 A 
ATOM      5  C24 CHE B   02     26.038  70.490   9.813  0.00  0.00    +0.112 A 
ATOM      6  N5  CHE B   02     24.551  70.390   9.187  0.00  0.00    -0.255 NA
ENDROOT
BRANCH   1  10
ATOM      7  C8  CHE B   02     18.222  68.885   2.638  0.00  0.00    +0.037 A 
ATOM      8  C9  CHE B   02     20.027  68.486   5.200  0.00  0.00    +0.014 A 
ATOM      9  C10 CHE B   02     23.014  67.543  10.485  0.00  0.00    +0.011 A 
ATOM     10  C11 CHE B   02     20.809  69.488   1.968  0.00  0.00    +0.000 A 
ATOM     11  C25 CHE B   02     22.233  67.634   9.678  0.00  0.00    +0.011 A 
ATOM     12  C26 CHE B   02     20.088  67.954   7.204  0.00  0.00    +0.014 A 
BRANCH   7  15
ATOM     13  C1  CHE B   02     12.934  64.146   4.903  0.00  0.00    +0.132 C 
ATOM     14  N1  CHE B   02     14.963  66.357   4.905  0.00  0.00    -0.297 N 
ATOM     15  C7  CHE B   02     17.237  68.382   3.903  0.00  0.00    +0.247 C 
ATOM     16  O2  CHE B   02     15.180  66.192   4.016  0.00  0.00    -0.270 OA
BRANCH  14  17
ATOM     17  C2  CHE B   02     16.681  68.805   6.188  0.00  0.00    +0.080 C 
ATOM     18  C3  CHE B   02     14.554  66.653   7.098  0.00  0.00    +0.050 C 
ATOM     19  C4  CHE B   02     16.305  69.076   8.196  0.00  0.00    +0.161 C 
ATOM     20  O1  CHE B   02     15.536  68.402   8.820  0.00  0.00    -0.380 OA
ATOM     21  C5  CHE B   02     15.644  68.324   8.245  0.00  0.00    +0.161 C 
ATOM     22  C6  CHE B   02     15.919  68.126   6.774  0.00  0.00    +0.050 C 
ENDBRANCH  14  17
ENDBRANCH   7  15
ENDBRANCH   1  10
BRANCH   3  23
ATOM     23  C15 CHE B   02     25.897  69.660   2.647  0.00  0.00    +0.029 A 
ATOM     24  C16 CHE B   02     26.950  65.069   6.365  0.00  0.00    +0.114 A 
ATOM     25  N2  CHE B   02     27.045  69.646   2.335  0.00  0.00    -0.284 N 
ATOM     26  N3  CHE B   02     27.436  70.403   1.562  0.00  0.00    -0.172 NA
ATOM     27  C17 CHE B   02     27.538  66.588   4.871  0.00  0.00    +0.118 A 
ATOM     28  H17 CHE B   02     27.325  69.642   2.259  0.00  0.00    +0.188 HD
BRANCH  27  29
ATOM     29  C18 CHE B   02     27.258  69.643   2.278  0.00  0.00    +0.091 A 
ATOM     30  C19 CHE B   02     28.112  65.039   6.031  0.00  0.00    +0.030 A 
ATOM     31  C20 CHE B   02     28.278  65.791   5.308  0.00  0.00    +0.004 A 
ATOM     32  C21 CHE B   02     28.212  68.075   3.317  0.00  0.00    +0.020 A 
ATOM     33  C22 CHE B   02     28.922  64.999   5.775  0.00  0.00    +0.111 A 
ATOM     34  N4  CHE B   02     27.341  71.160   0.911  0.00  0.00    -0.253 NA
ENDBRANCH  27  29
ENDBRANCH   3  23
TORSDOF 5
ENDMDL
MODEL 2
REMARK VINA RESULT:     -10.2      2.308      3.910
REMARK  Name = dock_mp/CHEMBL2/CHEMBL205271.pdb
REMARK  6 active torsions:
REMARK  status: ('A' for Active; 'I' for Inactive)
REMARK    1  A    between atoms: C1_1  and  N1_2
REMARK    2  A    between atoms: N1_2  and  C2_3
REMARK    3  A    between atoms: C7_9  and  C8_11
REMARK    4  A    between atoms: C11_14  and  C12_15
REMARK    5  A    between atoms: C14_17  and  C15_18
REMARK    6  A    between atoms: C17_22  and  C18_23
REMARK                            x       y       z     vdW  Elec       q    Type
REMARK                         _______ _______ _______ _____ _____    ______ ____
ROOT
ATOM      1  C12 CHE B   02     22.932  69.622   3.107  0.00  0.00    +0.072 A 
ATOM      2  C13 CHE B   02     23.935  69.571   2.880  0.00  0.00    +0.037 A 
ATOM      3  C14 CHE B   02     25.436  69.628   3.559  0.00  0.00    -0.011 A 
ATOM      4  C23 CHE B   02     26.167  69.857   5.429  0.00  0.00    +0.028 A 
ATOM      5  C24 CHE B   02     26.285  70.514  10.490  0.00  0.00    +0.112 A 
ATOM      6  N5  CHE B   02     24.824  70.455   9.803  0.00  0.00    -0.255 NA
ENDROOT
BRANCH   1  10
ATOM      7  C8  CHE B   02     18.740  68.996   2.992  0.00  0.00    +0.037 A 
ATOM      8  C9  CHE B   02     20.432  68.497   5.613  0.00  0.00    +0.014 A 
ATOM      9  C10 CHE B   02     23.183  67.362  10.987  0.00  0.00    +0.011 A 
ATOM     10  C11 CHE B   02     21.363  69.569   2.443  0.00  0.00    +0.000 A 
ATOM     11  C25 CHE B   02     22.437  67.489  10.152  0.00  0.00    +0.011 A 
ATOM     12  C26 CHE B   02     20.401  67.912   7.603  0.00  0.00    +0.014 A 
BRANCH   7  15
ATOM     13  C1  CHE B   02     13.235  64.345   4.893  0.00  0.00    +0.132 C 
ATOM     14  N1  CHE B   02     15.328  66.490   5.048  0.00  0.00    -0.297 N 
ATOM     15  C7  CHE B   02     17.696  68.478   4.202  0.00  0.00    +0.247 C 
ATOM     16  O2  CHE B   02     15.571  66.351   4.161  0.00  0.00    -0.270 OA
BRANCH  14  17
ATOM     17  C2  CHE B   02     17.070  68.835   6.481  0.00  0.00    +0.080 C 
ATOM     18  C3  CHE B   02     14.613  66.959   7.129  0.00  0.00    +0.050 C 
ATOM     19  C4  CHE B   02     16.416  69.264   8.386  0.00  0.00    +0.161 C 
ATOM     20  O1  CHE B   02     15.492  68.707   8.908  0.00  0.00    -0.380 OA
ATOM     21  C5  CHE B   02     15.679  68.584   8.362  0.00  0.00    +0.161 C 
ATOM     22  C6  CHE B   02     16.159  68.270   6.965  0.00  0.00    +0.050 C 
ENDBRANCH  14  17
ENDBRANCH   7  15
ENDBRANCH   1  10
BRANCH   3  23
ATOM     23  C15 CHE B   02     26.420  69.578   3.337  0.00  0.00    +0.029 A 
ATOM     24  C16 CHE B   02     27.030  75.476   4.264  0.00  0.00    +0.114 A 
ATOM     25  N2  CHE B   02     27.579  69.520   3.075  0.00  0.00    -0.284 N 
ATOM     26  N3  CHE B   02     28.049  68.508   2.792  0.00  0.00    -0.172 NA
ATOM     27  C17 CHE B   02     27.775  73.462   3.741  0.00  0.00    +0.118 A 
ATOM     28  H17 CHE B   02     27.862  69.506   3.012  0.00  0.00    +0.188 HD
BRANCH  27  29
ATOM     29  C18 CHE B   02     27.794  69.509   3.027  0.00  0.00    +0.091 A 
ATOM     30  C19 CHE B   02     28.210  75.415   4.005  0.00  0.00    +0.030 A 
ATOM     31  C20 CHE B   02     28.457  74.414   3.775  0.00  0.00    +0.004 A 
ATOM     32  C21 CHE B   02     28.620  71.441   3.208  0.00  0.00    +0.020 A 
ATOM     33  C22 CHE B   02     29.041  75.371   3.830  0.00  0.00    +0.111 A 
ATOM     34  N4  CHE B   02     28.033  67.520   2.622  0.00  0.00    -0.253 NA
ENDBRANCH  27  29
ENDBRANCH   3  23
TORSDOF 5
ENDMDL
MODEL 3
REMARK VINA RESULT:     -10.1      2.539      4.701
REMARK  Name = dock_mp/CHEMBL2/CHEMBL205271.pdb
REMARK  6 active torsions:
REMARK  status: ('A' for Active; 'I' for Inactive)
REMARK    1  A    between atoms: C1_1  and  N1_2
REMARK    2  A    between atoms: N1_2  and  C2_3
REMARK    3  A    between atoms: C7_9  and  C8_11
REMARK    4  A    between atoms: C11_14  and  C12_15
REMARK    5  A    between atoms: C14_17  and  C15_18
REMARK    6  A    between atoms: C17_22  and  C18_23
REMARK                            x       y       z     vdW  Elec       q    Type
REMARK                         _______ _______ _______ _____ _____    ______ ____
ROOT
ATOM      1  C12 CHE B   02     22.082  69.574   2.436  0.00  0.00    +0.072 A 
ATOM      2  C13 CHE B   02     23.081  69.632   2.188  0.00  0.00    +0.037 A 
ATOM      3  C14 CHE B   02     24.582  69.827   2.839  0.00  0.00    -0.011 A 
ATOM      4  C23 CHE B   02     25.327  70.087   4.700  0.00  0.00    +0.028 A 
ATOM      5  C24 CHE B   02     25.489  70.638   9.772  0.00  0.00    +0.112 A 
ATOM      6  N5  CHE B   02     24.026  70.445   9.112  0.00  0.00    -0.255 NA
ENDROOT
BRANCH   1  10
ATOM      7  C8  CHE B   02     17.963  68.575   2.402  0.00  0.00    +0.037 A 
ATOM      8  C9  CHE B   02     19.739  68.250   4.995  0.00  0.00    +0.014 A 
ATOM      9  C10 CHE B   02     22.676  67.409  10.325  0.00  0.00    +0.011 A 
ATOM     10  C11 CHE B   02     20.513  69.376   1.802  0.00  0.00    +0.000 A 
ATOM     11  C25 CHE B   02     21.907  67.462   9.502  0.00  0.00    +0.011 A 
ATOM     12  C26 CHE B   02     19.796  67.681   6.989  0.00  0.00    +0.014 A 
BRANCH   7  15
ATOM     13  C1  CHE B   02     16.352  68.703   9.679  0.00  0.00    +0.132 C 
ATOM     14  N1  CHE B   02     16.276  68.010   6.760  0.00  0.00    -0.297 N 
ATOM     15  C7  CHE B   02     16.991  67.975   3.635  0.00  0.00    +0.247 C 
ATOM     16  O2  CHE B   02     16.977  68.593   6.577  0.00  0.00    -0.270 OA
BRANCH  14  17
ATOM     17  C2  CHE B   02     15.190  66.476   4.104  0.00  0.00    +0.080 C 
ATOM     18  C3  CHE B   02     14.720  66.453   7.228  0.00  0.00    +0.050 C 
ATOM     19  C4  CHE B   02     13.765  65.051   4.532  0.00  0.00    +0.161 C 
ATOM     20  O1  CHE B   02     13.381  64.815   5.642  0.00  0.00    -0.380 OA
ATOM     21  C5  CHE B   02     13.789  65.223   5.519  0.00  0.00    +0.161 C 
ATOM     22  C6  CHE B   02     14.833  66.268   5.205  0.00  0.00    +0.050 C 
ENDBRANCH  14  17
ENDBRANCH   7  15
ENDBRANCH   1  10
BRANCH   3  23
ATOM     23  C15 CHE B   02     25.561  69.884   2.597  0.00  0.00    +0.029 A 
ATOM     24  C16 CHE B   02     25.590  75.787   3.673  0.00  0.00    +0.114 A 
ATOM     25  N2  CHE B   02     26.714  69.950   2.311  0.00  0.00    -0.284 N 
ATOM     26  N3  CHE B   02     27.278  68.999   1.991  0.00  0.00    -0.172 NA
ATOM     27  C17 CHE B   02     26.524  73.874   3.081  0.00  0.00    +0.118 A 
ATOM     28  H17 CHE B   02     26.996  69.966   2.242  0.00  0.00    +0.188 HD
BRANCH  27  29
ATOM     29  C18 CHE B   02     26.928  69.962   2.259  0.00  0.00    +0.091 A 
ATOM     30  C19 CHE B   02     26.774  75.822   3.543  0.00  0.00    +0.030 A 
ATOM     31  C20 CHE B   02     27.121  74.840   3.365  0.00  0.00    +0.004 A 
ATOM     32  C21 CHE B   02     27.575  71.905   2.766  0.00  0.00    +0.020 A 
ATOM     33  C22 CHE B   02     27.618  75.809   3.639  0.00  0.00    +0.111 A 
ATOM     34  N4  CHE B   02     27.363  68.003   1.874  0.00  0.00    -0.253 NA
ENDBRANCH  27  29
ENDBRANCH   3  23
TORSDOF 5
ENDMDL
MODEL 4
REMARK VINA RESULT:     -10.1      1.204      2.363
REMARK  Name = dock_mp/CHEMBL2/CHEMBL205271.pdb
REMARK  6 active torsions:
REMARK  status: ('A' for Active; 'I' for Inactive)
REMARK    1  A    between atoms: C1_1  and  N1_2
REMARK    2  A    between atoms: N1_2  and  C2_3
REMARK    3  A    between atoms: C7_9  and  C8_11
REMARK    4  A    between atoms: C11_14  and  C12_15
REMARK    5  A    between atoms: C14_17  and  C15_18
REMARK    6  A    between atoms: C17_22  and  C18_23
REMARK                            x       y       z     vdW  Elec       q    Type
REMARK                         _______ _______ _______ _____ _____    ______ ____
ROOT
ATOM      1  C12 CHE B   02     22.128  69.565   2.431  0.00  0.00    +0.072 A 
ATOM      2  C13 CHE B   02     23.117  69.638   2.153  0.00  0.00    +0.037 A 
ATOM      3  C14 CHE B   02     24.637  69.839   2.757  0.00  0.00    -0.011 A 
ATOM      4  C23 CHE B   02     25.440  70.075   4.597  0.00  0.00    +0.028 A 
ATOM      5  C24 CHE B   02     25.762  70.540   9.671  0.00  0.00    +0.112 A 
ATOM      6  N5  CHE B   02     24.281  70.342   9.055  0.00  0.00    -0.255 NA
ENDROOT
BRANCH   1  10
ATOM      7  C8  CHE B   02     18.013  68.549   2.524  0.00  0.00    +0.037 A 
ATOM      8  C9  CHE B   02     19.869  68.234   5.062  0.00  0.00    +0.014 A 
ATOM      9  C10 CHE B   02     22.971  67.408  10.300  0.00  0.00    +0.011 A 
ATOM     10  C11 CHE B   02     20.541  69.360   1.846  0.00  0.00    +0.000 A 
ATOM     11  C25 CHE B   02     22.177  67.457   9.501  0.00  0.00    +0.011 A 
ATOM     12  C26 CHE B   02     19.989  67.666   7.053  0.00  0.00    +0.014 A 
BRANCH   7  15
ATOM     13  C1  CHE B   02     16.591  68.713   9.839  0.00  0.00    +0.132 C 
ATOM     14  N1  CHE B   02     16.448  67.996   6.928  0.00  0.00    -0.297 N 
ATOM     15  C7  CHE B   02     17.082  67.947   3.786  0.00  0.00    +0.247 C 
ATOM     16  O2  CHE B   02     17.136  68.587   6.723  0.00  0.00    -0.270 OA
BRANCH  14  17
ATOM     17  C2  CHE B   02     15.314  66.428   4.313  0.00  0.00    +0.080 C 
ATOM     18  C3  CHE B   02     14.861  66.485   7.439  0.00  0.00    +0.050 C 
ATOM     19  C4  CHE B   02     13.861  65.044   4.781  0.00  0.00    +0.161 C 
ATOM     20  O1  CHE B   02     13.477  64.842   5.898  0.00  0.00    -0.380 OA
ATOM     21  C5  CHE B   02     13.893  65.238   5.764  0.00  0.00    +0.161 C 
ATOM     22  C6  CHE B   02     14.958  66.252   5.421  0.00  0.00    +0.050 C 
ENDBRANCH  14  17
ENDBRANCH   7  15
ENDBRANCH   1  10
BRANCH   3  23
ATOM     23  C15 CHE B   02     25.607  69.911   2.484  0.00  0.00    +0.029 A 
ATOM     24  C16 CHE B   02     27.061  65.325   6.072  0.00  0.00    +0.114 A 
ATOM     25  N2  CHE B   02     26.749  69.995   2.162  0.00  0.00    -0.284 N 
ATOM     26  N3  CHE B   02     27.070  70.801   1.406  0.00  0.00    -0.172 NA
ATOM     27  C17 CHE B   02     27.511  66.923   4.613  0.00  0.00    +0.118 A 
ATOM     28  H17 CHE B   02     27.028  70.016   2.084  0.00  0.00    +0.188 HD
BRANCH  27  29
ATOM     29  C18 CHE B   02     26.961  70.011   2.103  0.00  0.00    +0.091 A 
ATOM     30  C19 CHE B   02     28.197  65.350   5.675  0.00  0.00    +0.030 A 
ATOM     31  C20 CHE B   02     28.283  66.107   4.943  0.00  0.00    +0.004 A 
ATOM     32  C21 CHE B   02     28.009  68.413   2.997  0.00  0.00    +0.020 A 
ATOM     33  C22 CHE B   02     28.966  65.297   5.316  0.00  0.00    +0.111 A 
ATOM     34  N4  CHE B   02     26.898  71.540   0.749  0.00  0.00    -0.253 NA
ENDBRANCH  27  29
ENDBRANCH   3  23
TORSDOF 5
ENDMDL
MODEL 5
REMARK VINA RESULT:      -9.8      1.706      3.323
REMARK  Name = dock_mp/CHEMBL2/CHEMBL205271.pdb
REMARK  6 active torsions:
REMARK  status: ('A' for Active; 'I' for Inactive)
REMARK    1  A    between atoms: C1_1  and  N1_2
REMARK    2  A    between atoms: N1_2  and  C2_3
REMARK    3  A    between atoms: C7_9  and  C8_11
REMARK    4  A    between atoms: C11_14  and  C12_15
REMARK    5  A    between atoms: C14_17  and  C15_18
REMARK    6  A    between atoms: C17_22  and  C18_23
REMARK                            x       y       z     vdW  Elec       q    Type
REMARK                         _______ _______ _______ _____ _____    ______ ____
ROOT
ATOM      1  C12 CHE B   02     23.015  69.425   3.121  0.00  0.00    +0.072 A 
ATOM      2  C13 CHE B   02     23.849  70.014   3.253  0.00  0.00    +0.037 A 
ATOM      3  C14 CHE B   02     25.374  70.005   3.878  0.00  0.00    -0.011 A 
ATOM      4  C23 CHE B   02     26.538  68.652   4.827  0.00  0.00    +0.028 A 
ATOM      5  C24 CHE B   02     28.025  64.266   6.973  0.00  0.00    +0.112 A 
ATOM      6  N5  CHE B   02     26.532  64.298   6.354  0.00  0.00    -0.255 NA
ENDROOT
BRANCH   1  10
ATOM      7  C8  CHE B   02     18.813  68.860   3.086  0.00  0.00    +0.037 A 
ATOM      8  C9  CHE B   02     20.547  68.337   5.675  0.00  0.00    +0.014 A 
ATOM      9  C10 CHE B   02     23.384  67.163  10.996  0.00  0.00    +0.011 A 
ATOM     10  C11 CHE B   02     21.433  69.394   2.487  0.00  0.00    +0.000 A 
ATOM     11  C25 CHE B   02     22.624  67.300  10.175  0.00  0.00    +0.011 A 
ATOM     12  C26 CHE B   02     20.546  67.753   7.665  0.00  0.00    +0.014 A 
BRANCH   7  15
ATOM     13  C1  CHE B   02     13.099  64.484   5.023  0.00  0.00    +0.132 C 
ATOM     14  N1  CHE B   02     15.329  66.487   5.178  0.00  0.00    -0.297 N 
ATOM     15  C7  CHE B   02     17.785  68.358   4.316  0.00  0.00    +0.247 C 
ATOM     16  O2  CHE B   02     15.529  66.371   4.278  0.00  0.00    -0.270 OA
BRANCH  14  17
ATOM     17  C2  CHE B   02     17.270  68.657   6.631  0.00  0.00    +0.080 C 
ATOM     18  C3  CHE B   02     14.468  67.277   7.101  0.00  0.00    +0.050 C 
ATOM     19  C4  CHE B   02     16.482  69.380   8.391  0.00  0.00    +0.161 C 
ATOM     20  O1  CHE B   02     15.421  69.036   8.830  0.00  0.00    -0.380 OA
ATOM     21  C5  CHE B   02     15.647  68.829   8.326  0.00  0.00    +0.161 C 
ATOM     22  C6  CHE B   02     16.225  68.299   7.035  0.00  0.00    +0.050 C 
ENDBRANCH  14  17
ENDBRANCH   7  15
ENDBRANCH   1  10
BRANCH   3  23
ATOM     23  C15 CHE B   02     26.192  70.583   4.008  0.00  0.00    +0.029 A 
ATOM     24  C16 CHE B   02     25.932  69.790   9.950  0.00  0.00    +0.114 A 
ATOM     25  N2  CHE B   02     27.156  71.264   4.161  0.00  0.00    -0.284 N 
ATOM     26  N3  CHE B   02     27.675  71.732   3.246  0.00  0.00    -0.172 NA
ATOM     27  C17 CHE B   02     26.807  70.611   8.095  0.00  0.00    +0.118 A 
ATOM     28  H17 CHE B   02     27.391  71.430   4.198  0.00  0.00    +0.188 HD
BRANCH  27  29
ATOM     29  C18 CHE B   02     27.334  71.390   4.189  0.00  0.00    +0.091 A 
ATOM     30  C19 CHE B   02     26.910  70.485  10.106  0.00  0.00    +0.030 A 
ATOM     31  C20 CHE B   02     27.241  70.823   9.162  0.00  0.00    +0.004 A 
ATOM     32  C21 CHE B   02     27.760  71.495   6.252  0.00  0.00    +0.020 A 
ATOM     33  C22 CHE B   02     27.595  70.977  10.216  0.00  0.00    +0.111 A 
ATOM     34  N4  CHE B   02     27.787  71.915   2.267  0.00  0.00    -0.253 NA
ENDBRANCH  27  29
ENDBRANCH   3  23
TORSDOF 5
ENDMDL
MODEL 6
REMARK VINA RESULT:      -9.3      3.471      5.366
REMARK  Name = dock_mp/CHEMBL2/CHEMBL205271.pdb
REMARK  6 active torsions:
REMARK  status: ('A' for Active; 'I' for Inactive)
REMARK    1  A    between atoms: C1_1  and  N1_2
REMARK    2  A    between atoms: N1_2  and  C2_3
REMARK    3  A    between atoms: C7_9  and  C8_11
REMARK    4  A    between atoms: C11_14  and  C12_15
REMARK    5  A    between atoms: C14_17  and  C15_18
REMARK    6  A    between atoms: C17_22  and  C18_23
REMARK                            x       y       z     vdW  Elec       q    Type
REMARK                         _______ _______ _______ _____ _____    ______ ____
ROOT
ATOM      1  C12 CHE B   02     25.772  70.582   2.750  0.00  0.00    +0.072 A 
ATOM      2  C13 CHE B   02     26.248  71.372   3.208  0.00  0.00    +0.037 A 
ATOM      3  C14 CHE B   02     27.468  71.737   4.254  0.00  0.00    -0.011 A 
ATOM      4  C23 CHE B   02     28.831  70.681   5.309  0.00  0.00    +0.028 A 
ATOM      5  C24 CHE B   02     31.426  66.696   7.165  0.00  0.00    +0.112 A 
ATOM      6  N5  CHE B   02     30.224  66.361   6.137  0.00  0.00    -0.255 NA
ENDROOT
BRANCH   1  10
ATOM      7  C8  CHE B   02     21.845  69.597   1.493  0.00  0.00    +0.037 A 
ATOM      8  C9  CHE B   02     22.527  70.202   4.517  0.00  0.00    +0.014 A 
ATOM      9  C10 CHE B   02     23.248  71.277  10.523  0.00  0.00    +0.011 A 
ATOM     10  C11 CHE B   02     24.519  70.163   1.673  0.00  0.00    +0.000 A 
ATOM     11  C25 CHE B   02     22.835  71.036   9.502  0.00  0.00    +0.011 A 
ATOM     12  C26 CHE B   02     21.801  70.356   6.454  0.00  0.00    +0.014 A 
BRANCH   7  15
ATOM     13  C1  CHE B   02     18.708  67.199   7.815  0.00  0.00    +0.132 C 
ATOM     14  N1  CHE B   02     19.056  68.430   5.100  0.00  0.00    -0.297 N 
ATOM     15  C7  CHE B   02     20.432  69.451   2.390  0.00  0.00    +0.247 C 
ATOM     16  O2  CHE B   02     19.967  68.244   5.105  0.00  0.00    -0.270 OA
BRANCH  14  17
ATOM     17  C2  CHE B   02     18.091  69.929   2.378  0.00  0.00    +0.080 C 
ATOM     18  C3  CHE B   02     17.030  67.746   4.399  0.00  0.00    +0.050 C 
ATOM     19  C4  CHE B   02     16.236  69.302   1.736  0.00  0.00    +0.161 C 
ATOM     20  O1  CHE B   02     15.585  68.474   2.308  0.00  0.00    -0.380 OA
ATOM     21  C5  CHE B   02     16.116  68.654   2.491  0.00  0.00    +0.161 C 
ATOM     22  C6  CHE B   02     17.476  69.113   2.961  0.00  0.00    +0.050 C 
ENDBRANCH  14  17
ENDBRANCH   7  15
ENDBRANCH   1  10
BRANCH   3  23
ATOM     23  C15 CHE B   02     27.935  72.512   4.704  0.00  0.00    +0.029 A 
ATOM     24  C16 CHE B   02     26.802  70.183  10.117  0.00  0.00    +0.114 A 
ATOM     25  N2  CHE B   02     28.486  73.424   5.234  0.00  0.00    -0.284 N 
ATOM     26  N3  CHE B   02     28.946  74.262   4.593  0.00  0.00    -0.172 NA
ATOM     27  C17 CHE B   02     27.630  71.706   8.746  0.00  0.00    +0.118 A 
ATOM     28  H17 CHE B   02     28.620  73.646   5.363  0.00  0.00    +0.188 HD
BRANCH  27  29
ATOM     29  C18 CHE B   02     28.588  73.593   5.332  0.00  0.00    +0.091 A 
ATOM     30  C19 CHE B   02     27.305  71.139  10.656  0.00  0.00    +0.030 A 
ATOM     31  C20 CHE B   02     27.629  71.816   9.912  0.00  0.00    +0.004 A 
ATOM     32  C21 CHE B   02     28.399  73.358   7.419  0.00  0.00    +0.020 A 
ATOM     33  C22 CHE B   02     27.594  71.844  11.034  0.00  0.00    +0.111 A 
ATOM     34  N4  CHE B   02     29.146  74.731   3.729  0.00  0.00    -0.253 NA
ENDBRANCH  27  29
ENDBRANCH   3  23
TORSDOF 5
ENDMDL
MODEL 7
REMARK VINA RESULT:      -9.3      2.125      4.281
REMARK  Name = dock_mp/CHEMBL2/CHEMBL205271.pdb
REMARK  6 active torsions:
REMARK  status: ('A' for Active; 'I' for Inactive)
REMARK    1  A    between atoms: C1_1  and  N1_2
REMARK    2  A    between atoms: N1_2  and  C2_3
REMARK    3  A    between atoms: C7_9  and  C8_11
REMARK    4  A    between atoms: C11_14  and  C12_15
REMARK    5  A    between atoms: C14_17  and  C15_18
REMARK    6  A    between atoms: C17_22  and  C18_23
REMARK                            x       y       z     vdW  Elec       q    Type
REMARK                         _______ _______ _______ _____ _____    ______ ____
ROOT
ATOM      1  C12 CHE B   02     22.565  69.482   2.527  0.00  0.00    +0.072 A 
ATOM      2  C13 CHE B   02     23.560  69.415   2.267  0.00  0.00    +0.037 A 
ATOM      3  C14 CHE B   02     25.083  69.458   2.895  0.00  0.00    -0.011 A 
ATOM      4  C23 CHE B   02     25.879  69.695   4.738  0.00  0.00    +0.028 A 
ATOM      5  C24 CHE B   02     26.175  70.402   9.785  0.00  0.00    +0.112 A 
ATOM      6  N5  CHE B   02     24.691  70.356   9.147  0.00  0.00    -0.255 NA
ENDROOT
BRANCH   1  10
ATOM      7  C8  CHE B   02     18.363  68.922   2.560  0.00  0.00    +0.037 A 
ATOM      8  C9  CHE B   02     20.133  68.437   5.132  0.00  0.00    +0.014 A 
ATOM      9  C10 CHE B   02     23.043  67.341  10.430  0.00  0.00    +0.011 A 
ATOM     10  C11 CHE B   02     20.974  69.444   1.916  0.00  0.00    +0.000 A 
ATOM     11  C25 CHE B   02     22.272  67.466   9.617  0.00  0.00    +0.011 A 
ATOM     12  C26 CHE B   02     20.159  67.883   7.130  0.00  0.00    +0.014 A 
BRANCH   7  15
ATOM     13  C1  CHE B   02     12.897  64.345   4.735  0.00  0.00    +0.132 C 
ATOM     14  N1  CHE B   02     15.001  66.484   4.776  0.00  0.00    -0.297 N 
ATOM     15  C7  CHE B   02     17.352  68.440   3.812  0.00  0.00    +0.247 C 
ATOM     16  O2  CHE B   02     15.219  66.322   3.886  0.00  0.00    -0.270 OA
BRANCH  14  17
ATOM     17  C2  CHE B   02     16.792  68.857   6.098  0.00  0.00    +0.080 C 
ATOM     18  C3  CHE B   02     14.704  66.665   6.999  0.00  0.00    +0.050 C 
ATOM     19  C4  CHE B   02     16.520  69.023   8.133  0.00  0.00    +0.161 C 
ATOM     20  O1  CHE B   02     15.780  68.318   8.759  0.00  0.00    -0.380 OA
ATOM     21  C5  CHE B   02     15.858  68.271   8.177  0.00  0.00    +0.161 C 
ATOM     22  C6  CHE B   02     16.058  68.150   6.685  0.00  0.00    +0.050 C 
ENDBRANCH  14  17
ENDBRANCH   7  15
ENDBRANCH   1  10
BRANCH   3  23
ATOM     23  C15 CHE B   02     26.058  69.393   2.641  0.00  0.00    +0.029 A 
ATOM     24  C16 CHE B   02     25.493  74.031  -1.123  0.00  0.00    +0.114 A 
ATOM     25  N2  CHE B   02     27.207  69.315   2.342  0.00  0.00    -0.284 N 
ATOM     26  N3  CHE B   02     27.868  68.504   2.822  0.00  0.00    -0.172 NA
ATOM     27  C17 CHE B   02     26.621  72.422  -0.113  0.00  0.00    +0.118 A 
ATOM     28  H17 CHE B   02     27.487  69.297   2.269  0.00  0.00    +0.188 HD
BRANCH  27  29
ATOM     29  C18 CHE B   02     27.420  69.301   2.286  0.00  0.00    +0.091 A 
ATOM     30  C19 CHE B   02     26.644  73.916  -1.470  0.00  0.00    +0.030 A 
ATOM     31  C20 CHE B   02     27.073  73.100  -0.955  0.00  0.00    +0.004 A 
ATOM     32  C21 CHE B   02     27.814  70.737   0.793  0.00  0.00    +0.020 A 
ATOM     33  C22 CHE B   02     27.432  73.792  -1.762  0.00  0.00    +0.111 A 
ATOM     34  N4  CHE B   02     28.037  67.706   3.406  0.00  0.00    -0.253 NA
ENDBRANCH  27  29
ENDBRANCH   3  23
TORSDOF 5
ENDMDL
MODEL 8
REMARK VINA RESULT:      -9.3      2.701      4.523
REMARK  Name = dock_mp/CHEMBL2/CHEMBL205271.pdb
REMARK  6 active torsions:
REMARK  status: ('A' for Active; 'I' for Inactive)
REMARK    1  A    between atoms: C1_1  and  N1_2
REMARK    2  A    between atoms: N1_2  and  C2_3
REMARK    3  A    between atoms: C7_9  and  C8_11
REMARK    4  A    between atoms: C11_14  and  C12_15
REMARK    5  A    between atoms: C14_17  and  C15_18
REMARK    6  A    between atoms: C17_22  and  C18_23
REMARK                            x       y       z     vdW  Elec       q    Type
REMARK                         _______ _______ _______ _____ _____    ______ ____
ROOT
ATOM      1  C12 CHE B   02     22.417  69.948   2.171  0.00  0.00    +0.072 A 
ATOM      2  C13 CHE B   02     23.219  70.583   2.059  0.00  0.00    +0.037 A 
ATOM      3  C14 CHE B   02     24.751  70.867   2.598  0.00  0.00    -0.011 A 
ATOM      4  C23 CHE B   02     25.997  69.997   3.930  0.00  0.00    +0.028 A 
ATOM      5  C24 CHE B   02     27.746  66.740   7.450  0.00  0.00    +0.112 A 
ATOM      6  N5  CHE B   02     26.246  66.481   6.907  0.00  0.00    -0.255 NA
ENDROOT
BRANCH   1  10
ATOM      7  C8  CHE B   02     18.359  68.748   2.438  0.00  0.00    +0.037 A 
ATOM      8  C9  CHE B   02     20.275  68.727   4.950  0.00  0.00    +0.014 A 
ATOM      9  C10 CHE B   02     23.512  68.474  10.165  0.00  0.00    +0.011 A 
ATOM     10  C11 CHE B   02     20.831  69.621   1.640  0.00  0.00    +0.000 A 
ATOM     11  C25 CHE B   02     22.702  68.420   9.383  0.00  0.00    +0.011 A 
ATOM     12  C26 CHE B   02     20.461  68.327   6.977  0.00  0.00    +0.014 A 
BRANCH   7  15
ATOM     13  C1  CHE B   02     13.055  64.144   4.934  0.00  0.00    +0.132 C 
ATOM     14  N1  CHE B   02     15.205  66.237   4.867  0.00  0.00    -0.297 N 
ATOM     15  C7  CHE B   02     17.482  68.206   3.765  0.00  0.00    +0.247 C 
ATOM     16  O2  CHE B   02     15.318  66.128   3.950  0.00  0.00    -0.270 OA
BRANCH  14  17
ATOM     17  C2  CHE B   02     17.193  68.488   6.121  0.00  0.00    +0.080 C 
ATOM     18  C3  CHE B   02     14.857  66.580   7.063  0.00  0.00    +0.050 C 
ATOM     19  C4  CHE B   02     16.874  68.802   8.131  0.00  0.00    +0.161 C 
ATOM     20  O1  CHE B   02     16.045  68.216   8.768  0.00  0.00    -0.380 OA
ATOM     21  C5  CHE B   02     16.136  68.126   8.192  0.00  0.00    +0.161 C 
ATOM     22  C6  CHE B   02     16.369  67.896   6.718  0.00  0.00    +0.050 C 
ENDBRANCH  14  17
ENDBRANCH   7  15
ENDBRANCH   1  10
BRANCH   3  23
ATOM     23  C15 CHE B   02     25.538  71.490   2.488  0.00  0.00    +0.029 A 
ATOM     24  C16 CHE B   02     25.732  70.366  -3.403  0.00  0.00    +0.114 A 
ATOM     25  N2  CHE B   02     26.465  72.224   2.358  0.00  0.00    -0.284 N 
ATOM     26  N3  CHE B   02     26.890  72.774   3.276  0.00  0.00    -0.172 NA
ATOM     27  C17 CHE B   02     26.426  71.341  -1.546  0.00  0.00    +0.118 A 
ATOM     28  H17 CHE B   02     26.691  72.403   2.327  0.00  0.00    +0.188 HD
BRANCH  27  29
ATOM     29  C18 CHE B   02     26.637  72.360   2.334  0.00  0.00    +0.091 A 
ATOM     30  C19 CHE B   02     26.690  71.095  -3.531  0.00  0.00    +0.030 A 
ATOM     31  C20 CHE B   02     26.943  71.492  -2.586  0.00  0.00    +0.004 A 
ATOM     32  C21 CHE B   02     27.224  72.344   0.309  0.00  0.00    +0.020 A 
ATOM     33  C22 CHE B   02     27.378  71.585  -3.616  0.00  0.00    +0.111 A 
ATOM     34  N4  CHE B   02     26.933  73.005   4.251  0.00  0.00    -0.253 NA
ENDBRANCH  27  29
ENDBRANCH   3  23
TORSDOF 5
ENDMDL
MODEL 9
REMARK VINA RESULT:      -9.1      5.163      9.883
REMARK  Name = dock_mp/CHEMBL2/CHEMBL205271.pdb
REMARK  6 active torsions:
REMARK  status: ('A' for Active; 'I' for Inactive)
REMARK    1  A    between atoms: C1_1  and  N1_2
REMARK    2  A    between atoms: N1_2  and  C2_3
REMARK    3  A    between atoms: C7_9  and  C8_11
REMARK    4  A    between atoms: C11_14  and  C12_15
REMARK    5  A    between atoms: C14_17  and  C15_18
REMARK    6  A    between atoms: C17_22  and  C18_23
REMARK                            x       y       z     vdW  Elec       q    Type
REMARK                         _______ _______ _______ _____ _____    ______ ____
ROOT
ATOM      1  C12 CHE B   02     18.380  67.073  13.496  0.00  0.00    +0.072 A 
ATOM      2  C13 CHE B   02     19.116  67.589  14.000  0.00  0.00    +0.037 A 
ATOM      3  C14 CHE B   02     20.368  67.392  15.053  0.00  0.00    -0.011 A 
ATOM      4  C23 CHE B   02     21.210  65.829  16.019  0.00  0.00    +0.028 A 
ATOM      5  C24 CHE B   02     22.062  61.043  17.577  0.00  0.00    +0.112 A 
ATOM      6  N5  CHE B   02     20.838  61.260  16.544  0.00  0.00    -0.255 NA
ENDROOT
BRANCH   1  10
ATOM      7  C8  CHE B   02     16.419  67.656   9.783  0.00  0.00    +0.037 A 
ATOM      8  C9  CHE B   02     19.568  67.654  10.025  0.00  0.00    +0.014 A 
ATOM      9  C10 CHE B   02     25.709  67.752   9.877  0.00  0.00    +0.011 A 
ATOM     10  C11 CHE B   02     17.078  67.235  12.409  0.00  0.00    +0.000 A 
ATOM     11  C25 CHE B   02     24.614  67.781   9.614  0.00  0.00    +0.011 A 
ATOM     12  C26 CHE B   02     21.377  67.839   9.027  0.00  0.00    +0.014 A 
BRANCH   7  15
ATOM     13  C1  CHE B   02     21.905  70.726   5.781  0.00  0.00    +0.132 C 
ATOM     14  N1  CHE B   02     19.411  69.223   6.507  0.00  0.00    -0.297 N 
ATOM     15  C7  CHE B   02     17.064  67.913   8.254  0.00  0.00    +0.247 C 
ATOM     16  O2  CHE B   02     19.542  69.394   7.411  0.00  0.00    -0.270 OA
BRANCH  14  17
ATOM     17  C2  CHE B   02     16.729  67.474   5.929  0.00  0.00    +0.080 C 
ATOM     18  C3  CHE B   02     18.918  69.083   4.316  0.00  0.00    +0.050 C 
ATOM     19  C4  CHE B   02     16.277  67.345   3.923  0.00  0.00    +0.161 C 
ATOM     20  O1  CHE B   02     16.934  67.861   3.064  0.00  0.00    -0.380 OA
ATOM     21  C5  CHE B   02     17.064  67.898   3.639  0.00  0.00    +0.161 C 
ATOM     22  C6  CHE B   02     17.395  67.992   5.109  0.00  0.00    +0.050 C 
ENDBRANCH  14  17
ENDBRANCH   7  15
ENDBRANCH   1  10
BRANCH   3  23
ATOM     23  C15 CHE B   02     21.089  67.898  15.546  0.00  0.00    +0.029 A 
ATOM     24  C16 CHE B   02     25.358  65.075  12.414  0.00  0.00    +0.114 A 
ATOM     25  N2  CHE B   02     21.939  68.495  16.128  0.00  0.00    -0.284 N 
ATOM     26  N3  CHE B   02     21.646  69.260  16.937  0.00  0.00    -0.172 NA
ATOM     27  C17 CHE B   02     24.630  66.504  13.934  0.00  0.00    +0.118 A 
ATOM     28  H17 CHE B   02     22.146  68.640  16.270  0.00  0.00    +0.188 HD
BRANCH  27  29
ATOM     29  C18 CHE B   02     22.096  68.605  16.236  0.00  0.00    +0.091 A 
ATOM     30  C19 CHE B   02     26.218  65.713  12.973  0.00  0.00    +0.030 A 
ATOM     31  C20 CHE B   02     25.760  66.380  13.651  0.00  0.00    +0.004 A 
ATOM     32  C21 CHE B   02     23.967  68.043  15.441  0.00  0.00    +0.020 A 
ATOM     33  C22 CHE B   02     26.819  66.199  13.327  0.00  0.00    +0.111 A 
ATOM     34  N4  CHE B   02     20.995  69.790  17.485  0.00  0.00    -0.253 NA
ENDBRANCH  27  29
ENDBRANCH   3  23
TORSDOF 5
ENDMDL
MODEL 10
REMARK VINA RESULT:      -9.0      3.008      6.807
REMARK  Name = dock_mp/CHEMBL2/CHEMBL205271.pdb
REMARK  6 active torsions:
REMARK  status: ('A' for Active; 'I' for Inactive)
REMARK    1  A    between atoms: C1_1  and  N1_2
REMARK    2  A    between atoms: N1_2  and  C2_3
REMARK    3  A    between atoms: C7_9  and  C8_11
REMARK    4  A    between atoms: C11_14  and  C12_15
REMARK    5  A    between atoms: C14_17  and  C15_18
REMARK    6  A    between atoms: C17_22  and  C18_23
REMARK                            x       y       z     vdW  Elec       q    Type
REMARK                         _______ _______ _______ _____ _____    ______ ____
ROOT
ATOM      1  C12 CHE B   02     23.800  69.560   8.643  0.00  0.00    +0.072 A 
ATOM      2  C13 CHE B   02     24.669  70.028   8.935  0.00  0.00    +0.037 A 
ATOM      3  C14 CHE B   02     26.209  70.354   8.448  0.00  0.00    -0.011 A 
ATOM      4  C23 CHE B   02     27.322  69.949   6.810  0.00  0.00    +0.028 A 
ATOM      5  C24 CHE B   02     28.622  68.138   2.218  0.00  0.00    +0.112 A 
ATOM      6  N5  CHE B   02     27.116  67.830   2.717  0.00  0.00    -0.255 NA
ENDROOT
BRANCH   1  10
ATOM      7  C8  CHE B   02     19.680  68.675   8.173  0.00  0.00    +0.037 A 
ATOM      8  C9  CHE B   02     21.580  69.144   5.693  0.00  0.00    +0.014 A 
ATOM      9  C10 CHE B   02     24.773  69.954   0.508  0.00  0.00    +0.011 A 
ATOM     10  C11 CHE B   02     22.200  69.202   9.110  0.00  0.00    +0.000 A 
ATOM     11  C25 CHE B   02     23.965  69.761   1.270  0.00  0.00    +0.011 A 
ATOM     12  C26 CHE B   02     21.734  69.223   3.626  0.00  0.00    +0.014 A 
BRANCH   7  15
ATOM     13  C1  CHE B   02     14.052  65.145   4.794  0.00  0.00    +0.132 C 
ATOM     14  N1  CHE B   02     16.352  67.007   5.293  0.00  0.00    -0.297 N 
ATOM     15  C7  CHE B   02     18.768  68.508   6.772  0.00  0.00    +0.247 C 
ATOM     16  O2  CHE B   02     16.454  66.688   6.161  0.00  0.00    -0.270 OA
BRANCH  14  17
ATOM     17  C2  CHE B   02     18.506  69.328   4.542  0.00  0.00    +0.080 C 
ATOM     18  C3  CHE B   02     16.127  67.755   3.183  0.00  0.00    +0.050 C 
ATOM     19  C4  CHE B   02     18.299  70.012   2.611  0.00  0.00    +0.161 C 
ATOM     20  O1  CHE B   02     17.474  69.598   1.848  0.00  0.00    -0.380 OA
ATOM     21  C5  CHE B   02     17.533  69.402   2.401  0.00  0.00    +0.161 C 
ATOM     22  C6  CHE B   02     17.684  68.900   3.817  0.00  0.00    +0.050 C 
ENDBRANCH  14  17
ENDBRANCH   7  15
ENDBRANCH   1  10
BRANCH   3  23
ATOM     23  C15 CHE B   02     27.062  70.813   8.735  0.00  0.00    +0.029 A 
ATOM     24  C16 CHE B   02     26.845  74.431   3.952  0.00  0.00    +0.114 A 
ATOM     25  N2  CHE B   02     28.067  71.353   9.073  0.00  0.00    -0.284 N 
ATOM     26  N3  CHE B   02     28.599  71.017  10.037  0.00  0.00    -0.172 NA
ATOM     27  C17 CHE B   02     27.740  73.667   5.823  0.00  0.00    +0.118 A 
ATOM     28  H17 CHE B   02     28.312  71.485   9.156  0.00  0.00    +0.188 HD
BRANCH  27  29
ATOM     29  C18 CHE B   02     28.253  71.453   9.136  0.00  0.00    +0.091 A 
ATOM     30  C19 CHE B   02     27.807  75.039   4.345  0.00  0.00    +0.030 A 
ATOM     31  C20 CHE B   02     28.112  74.630   5.270  0.00  0.00    +0.004 A 
ATOM     32  C21 CHE B   02     28.605  73.058   7.814  0.00  0.00    +0.020 A 
ATOM     33  C22 CHE B   02     28.412  75.534   4.677  0.00  0.00    +0.111 A 
ATOM     34  N4  CHE B   02     28.677  70.483  10.884  0.00  0.00    -0.253 NA
ENDBRANCH  27  29
ENDBRANCH   3  23
TORSDOF 5
ENDMDL
