MODEL 1
REMARK VINA RESULT:     -12.5      0.000      0.000
REMARK  Name = dock_mp/CHEMBL2/CHEMBL206233.pdb
REMARK  7 active torsions:
REMARK  status: ('A' for Active; 'I' for Inactive)
REMARK    1  A    between atoms: C1_1  and  C2_2
REMARK    2  A    between atoms: C6_6  and  C7_7
REMARK    3  A    between atoms: C12_14  and  C13_15
REMARK    4  A    between atoms: N4_21  and  C18_22
REMARK    5  A    between atoms: C18_22  and  C19_23
REMARK    6  A    between atoms: C19_23  and  C20_24
REMARK    7  A    between atoms: C20_24  and  N5_25
REMARK                            x       y       z     vdW  Elec       q    Type
REMARK                         _______ _______ _______ _____ _____    ______ ____
ROOT
ATOM      1  C13 CHE B   02     18.228  66.241   8.579  0.00  0.00    -0.012 A 
ATOM      2  C14 CHE B   02     16.525  66.706   6.152  0.00  0.00    +0.011 A 
ATOM      3  C15 CHE B   02     16.059  67.618   4.204  0.00  0.00    +0.030 A 
ATOM      4  C16 CHE B   02     18.902  67.513   7.156  0.00  0.00    +0.089 A 
ATOM      5  N3  CHE B   02     17.918  68.624   4.374  0.00  0.00    -0.236 NA
ATOM      6  C17 CHE B   02     22.220  67.834   9.873  0.00  0.00    +0.200 A 
ATOM      7  N4  CHE B   02     21.283  67.657   9.247  0.00  0.00    -0.330 N 
ATOM      8  C25 CHE B   02     20.045  67.209   8.770  0.00  0.00    +0.069 A 
ATOM      9  C26 CHE B   02     16.641  67.475   5.006  0.00  0.00    +0.036 A 
ENDROOT
BRANCH   1  17
ATOM     10  C7  CHE B   02     15.685  66.468   7.534  0.00  0.00    +0.119 A 
ATOM     11  N1  CHE B   02     18.151  69.052  12.399  0.00  0.00    -0.169 NA
ATOM     12  N2  CHE B   02     17.551  68.050  10.703  0.00  0.00    -0.267 N 
ATOM     13  C8  CHE B   02     15.384  66.659   7.635  0.00  0.00    +0.144 C 
ATOM     14  C9  CHE B   02     19.061  68.476  12.093  0.00  0.00    +0.029 C 
ATOM     15  C10 CHE B   02     15.342  64.613   4.803  0.00  0.00    +0.057 C 
ATOM     16  C11 CHE B   02     14.862  64.917   4.964  0.00  0.00    +0.048 A 
ATOM     17  C12 CHE B   02     16.457  65.980   7.275  0.00  0.00    +0.032 A 
BRANCH  10  23
ATOM     18  C1  CHE B   02     16.520  68.231  11.285  0.00  0.00    +0.065 C 
ATOM     19  C2  CHE B   02     17.399  68.587  11.828  0.00  0.00    +0.039 A 
ATOM     20  C3  CHE B   02     13.502  65.345   5.638  0.00  0.00    +0.023 A 
ATOM     21  C4  CHE B   02     14.355  65.703   6.196  0.00  0.00    +0.004 A 
ATOM     22  C5  CHE B   02     18.603  68.900  12.180  0.00  0.00    +0.030 A 
ATOM     23  C6  CHE B   02     17.453  68.112  10.735  0.00  0.00    +0.092 A 
ATOM     24  N6  CHE B   02     16.107  67.349   9.407  0.00  0.00    -0.250 NA
ENDBRANCH  10  23
ENDBRANCH   1  17
BRANCH   7  25
ATOM     25  C18 CHE B   02     17.713  69.105   3.386  0.00  0.00    +0.121 C 
BRANCH  25  26
ATOM     26  C19 CHE B   02     22.578  68.902  11.038  0.00  0.00    +0.003 C 
BRANCH  26  27
ATOM     27  C20 CHE B   02     20.989  69.007   8.459  0.00  0.00    -0.077 C 
BRANCH  27  28
ATOM     28  N5  CHE B   02     20.330  69.234   4.391  0.00  0.00    +0.380 N 
ATOM     29  C21 CHE B   02     20.869  69.569   3.071  0.00  0.00    -0.079 C 
ATOM     30  C22 CHE B   02     22.407  69.934   4.585  0.00  0.00    -0.020 C 
ATOM     31  C23 CHE B   02     21.166  69.808   1.855  0.00  0.00    -0.020 C 
ATOM     32  C24 CHE B   02     21.310  69.500   5.057  0.00  0.00    -0.079 C 
ATOM     33  H22 CHE B   02     19.582  69.060   3.624  0.00  0.00    -0.082 HD
ENDBRANCH  27  28
ENDBRANCH  26  27
ENDBRANCH  25  26
ENDBRANCH   7  25
TORSDOF 6
ENDMDL
MODEL 2
REMARK VINA RESULT:     -11.1      2.409      7.064
REMARK  Name = dock_mp/CHEMBL2/CHEMBL206233.pdb
REMARK  7 active torsions:
REMARK  status: ('A' for Active; 'I' for Inactive)
REMARK    1  A    between atoms: C1_1  and  C2_2
REMARK    2  A    between atoms: C6_6  and  C7_7
REMARK    3  A    between atoms: C12_14  and  C13_15
REMARK    4  A    between atoms: N4_21  and  C18_22
REMARK    5  A    between atoms: C18_22  and  C19_23
REMARK    6  A    between atoms: C19_23  and  C20_24
REMARK    7  A    between atoms: C20_24  and  N5_25
REMARK                            x       y       z     vdW  Elec       q    Type
REMARK                         _______ _______ _______ _____ _____    ______ ____
ROOT
ATOM      1  C13 CHE B   02     19.726  70.241   7.356  0.00  0.00    -0.012 A 
ATOM      2  C14 CHE B   02     22.339  69.870   8.784  0.00  0.00    +0.011 A 
ATOM      3  C15 CHE B   02     24.495  69.436   8.891  0.00  0.00    +0.030 A 
ATOM      4  C16 CHE B   02     21.365  69.772   6.264  0.00  0.00    +0.089 A 
ATOM      5  N3  CHE B   02     24.421  69.200   6.785  0.00  0.00    -0.236 NA
ATOM      6  C17 CHE B   02     18.528  69.975   3.037  0.00  0.00    +0.200 A 
ATOM      7  N4  CHE B   02     19.171  69.954   3.980  0.00  0.00    -0.330 N 
ATOM      8  C25 CHE B   02     19.627  70.017   5.302  0.00  0.00    +0.069 A 
ATOM      9  C26 CHE B   02     23.632  69.556   8.397  0.00  0.00    +0.036 A 
ENDROOT
BRANCH   1  17
ATOM     10  C7  CHE B   02     21.000  69.394   9.652  0.00  0.00    +0.119 A 
ATOM     11  N1  CHE B   02     16.671  66.745   6.386  0.00  0.00    -0.169 NA
ATOM     12  N2  CHE B   02     18.136  67.852   7.319  0.00  0.00    -0.267 N 
ATOM     13  C8  CHE B   02     20.970  69.092   9.863  0.00  0.00    +0.144 C 
ATOM     14  C9  CHE B   02     16.761  67.661   5.747  0.00  0.00    +0.029 C 
ATOM     15  C10 CHE B   02     23.252  71.614  10.660  0.00  0.00    +0.057 C 
ATOM     16  C11 CHE B   02     23.204  71.132  10.997  0.00  0.00    +0.048 A 
ATOM     17  C12 CHE B   02     21.076  70.171   9.110  0.00  0.00    +0.032 A 
BRANCH  10  23
ATOM     18  C1  CHE B   02     17.794  67.070   8.169  0.00  0.00    +0.065 C 
ATOM     19  C2  CHE B   02     17.231  66.980   7.237  0.00  0.00    +0.039 A 
ATOM     20  C3  CHE B   02     22.850  69.998  12.067  0.00  0.00    +0.023 A 
ATOM     21  C4  CHE B   02     22.278  69.889  11.157  0.00  0.00    +0.004 A 
ATOM     22  C5  CHE B   02     16.784  67.127   6.032  0.00  0.00    +0.030 A 
ATOM     23  C6  CHE B   02     18.126  67.754   7.387  0.00  0.00    +0.092 A 
ATOM     24  N6  CHE B   02     19.398  68.235   8.907  0.00  0.00    -0.250 NA
ENDBRANCH  10  23
ENDBRANCH   1  17
BRANCH   7  25
ATOM     25  C18 CHE B   02     25.517  68.976   6.803  0.00  0.00    +0.121 C 
BRANCH  25  26
ATOM     26  C19 CHE B   02     17.891  69.267   1.901  0.00  0.00    +0.003 C 
BRANCH  26  27
ATOM     27  C20 CHE B   02     20.469  69.180   3.492  0.00  0.00    -0.077 C 
BRANCH  27  28
ATOM     28  N5  CHE B   02     24.542  69.238   4.163  0.00  0.00    +0.380 N 
ATOM     29  C21 CHE B   02     25.882  69.424   3.602  0.00  0.00    -0.079 C 
ATOM     30  C22 CHE B   02     24.398  69.691   2.015  0.00  0.00    -0.020 C 
ATOM     31  C23 CHE B   02     27.111  69.552   3.292  0.00  0.00    -0.020 C 
ATOM     32  C24 CHE B   02     23.897  69.423   3.151  0.00  0.00    -0.079 C 
ATOM     33  H22 CHE B   02     25.294  69.109   4.935  0.00  0.00    -0.082 HD
ENDBRANCH  27  28
ENDBRANCH  26  27
ENDBRANCH  25  26
ENDBRANCH   7  25
TORSDOF 6
ENDMDL
MODEL 3
REMARK VINA RESULT:     -11.0      1.861      6.292
REMARK  Name = dock_mp/CHEMBL2/CHEMBL206233.pdb
REMARK  7 active torsions:
REMARK  status: ('A' for Active; 'I' for Inactive)
REMARK    1  A    between atoms: C1_1  and  C2_2
REMARK    2  A    between atoms: C6_6  and  C7_7
REMARK    3  A    between atoms: C12_14  and  C13_15
REMARK    4  A    between atoms: N4_21  and  C18_22
REMARK    5  A    between atoms: C18_22  and  C19_23
REMARK    6  A    between atoms: C19_23  and  C20_24
REMARK    7  A    between atoms: C20_24  and  N5_25
REMARK                            x       y       z     vdW  Elec       q    Type
REMARK                         _______ _______ _______ _____ _____    ______ ____
ROOT
ATOM      1  C13 CHE B   02     16.340  68.403   7.459  0.00  0.00    -0.012 A 
ATOM      2  C14 CHE B   02     18.059  67.865   9.858  0.00  0.00    +0.011 A 
ATOM      3  C15 CHE B   02     19.980  67.576  10.895  0.00  0.00    +0.030 A 
ATOM      4  C16 CHE B   02     18.349  68.353   7.214  0.00  0.00    +0.089 A 
ATOM      5  N3  CHE B   02     20.899  67.889   9.010  0.00  0.00    -0.236 NA
ATOM      6  C17 CHE B   02     17.266  69.178   3.135  0.00  0.00    +0.200 A 
ATOM      7  N4  CHE B   02     17.412  68.961   4.246  0.00  0.00    -0.330 N 
ATOM      8  C25 CHE B   02     17.210  68.712   5.609  0.00  0.00    +0.069 A 
ATOM      9  C26 CHE B   02     19.423  67.757  10.083  0.00  0.00    +0.036 A 
ENDROOT
BRANCH   1  17
ATOM     10  C7  CHE B   02     16.631  67.075   9.859  0.00  0.00    +0.119 A 
ATOM     11  N1  CHE B   02     14.946  65.019   4.441  0.00  0.00    -0.169 NA
ATOM     12  N2  CHE B   02     15.543  65.965   6.170  0.00  0.00    -0.267 N 
ATOM     13  C8  CHE B   02     16.583  66.723   9.963  0.00  0.00    +0.144 C 
ATOM     14  C9  CHE B   02     15.090  66.085   4.126  0.00  0.00    +0.029 C 
ATOM     15  C10 CHE B   02     17.613  69.145  12.261  0.00  0.00    +0.057 C 
ATOM     16  C11 CHE B   02     17.537  68.584  12.427  0.00  0.00    +0.048 A 
ATOM     17  C12 CHE B   02     16.752  67.979   9.592  0.00  0.00    +0.032 A 
BRANCH  10  23
ATOM     18  C1  CHE B   02     15.062  64.934   6.568  0.00  0.00    +0.065 C 
ATOM     19  C2  CHE B   02     15.004  65.057   5.484  0.00  0.00    +0.039 A 
ATOM     20  C3  CHE B   02     17.032  67.153  12.934  0.00  0.00    +0.023 A 
ATOM     21  C4  CHE B   02     16.960  67.250  11.860  0.00  0.00    +0.004 A 
ATOM     22  C5  CHE B   02     15.108  65.499   4.273  0.00  0.00    +0.030 A 
ATOM     23  C6  CHE B   02     15.527  65.850   6.204  0.00  0.00    +0.092 A 
ATOM     24  N6  CHE B   02     15.849  66.009   8.212  0.00  0.00    -0.250 NA
ENDBRANCH  10  23
ENDBRANCH   1  17
BRANCH   7  25
ATOM     25  C18 CHE B   02     21.891  67.747   9.504  0.00  0.00    +0.121 C 
BRANCH  25  26
ATOM     26  C19 CHE B   02     17.424  70.050   1.955  0.00  0.00    +0.003 C 
BRANCH  26  27
ATOM     27  C20 CHE B   02     18.965  69.294   4.452  0.00  0.00    -0.077 C 
BRANCH  27  28
ATOM     28  N5  CHE B   02     22.153  69.150   7.070  0.00  0.00    +0.380 N 
ATOM     29  C21 CHE B   02     23.545  69.519   7.341  0.00  0.00    -0.079 C 
ATOM     30  C22 CHE B   02     22.971  70.286   5.373  0.00  0.00    -0.020 C 
ATOM     31  C23 CHE B   02     24.732  69.749   7.744  0.00  0.00    -0.020 C 
ATOM     32  C24 CHE B   02     22.045  69.655   5.971  0.00  0.00    -0.079 C 
ATOM     33  H22 CHE B   02     22.459  68.778   8.043  0.00  0.00    -0.082 HD
ENDBRANCH  27  28
ENDBRANCH  26  27
ENDBRANCH  25  26
ENDBRANCH   7  25
TORSDOF 6
ENDMDL
MODEL 4
REMARK VINA RESULT:     -10.3      3.340      4.740
REMARK  Name = dock_mp/CHEMBL2/CHEMBL206233.pdb
REMARK  7 active torsions:
REMARK  status: ('A' for Active; 'I' for Inactive)
REMARK    1  A    between atoms: C1_1  and  C2_2
REMARK    2  A    between atoms: C6_6  and  C7_7
REMARK    3  A    between atoms: C12_14  and  C13_15
REMARK    4  A    between atoms: N4_21  and  C18_22
REMARK    5  A    between atoms: C18_22  and  C19_23
REMARK    6  A    between atoms: C19_23  and  C20_24
REMARK    7  A    between atoms: C20_24  and  N5_25
REMARK                            x       y       z     vdW  Elec       q    Type
REMARK                         _______ _______ _______ _____ _____    ______ ____
ROOT
ATOM      1  C13 CHE B   02     19.931  70.239   6.770  0.00  0.00    -0.012 A 
ATOM      2  C14 CHE B   02     19.823  69.558   3.850  0.00  0.00    +0.011 A 
ATOM      3  C15 CHE B   02     20.706  69.198   1.866  0.00  0.00    +0.030 A 
ATOM      4  C16 CHE B   02     21.665  70.186   5.727  0.00  0.00    +0.089 A 
ATOM      5  N3  CHE B   02     22.581  69.606   2.767  0.00  0.00    -0.236 NA
ATOM      6  C17 CHE B   02     23.301  71.241   9.563  0.00  0.00    +0.200 A 
ATOM      7  N4  CHE B   02     22.738  70.962   8.610  0.00  0.00    -0.330 N 
ATOM      8  C25 CHE B   02     21.747  70.641   7.674  0.00  0.00    +0.069 A 
ATOM      9  C26 CHE B   02     20.762  69.427   2.838  0.00  0.00    +0.036 A 
ENDROOT
BRANCH   1  17
ATOM     10  C7  CHE B   02     18.828  68.765   4.716  0.00  0.00    +0.119 A 
ATOM     11  N1  CHE B   02     21.294  66.966   9.922  0.00  0.00    -0.169 NA
ATOM     12  N2  CHE B   02     20.509  67.833   8.227  0.00  0.00    -0.267 N 
ATOM     13  C8  CHE B   02     18.779  68.403   4.660  0.00  0.00    +0.144 C 
ATOM     14  C9  CHE B   02     21.443  68.063  10.091  0.00  0.00    +0.029 C 
ATOM     15  C10 CHE B   02     17.740  70.738   2.278  0.00  0.00    +0.057 C 
ATOM     16  C11 CHE B   02     17.662  70.160   2.189  0.00  0.00    +0.048 A 
ATOM     17  C12 CHE B   02     18.954  69.696   4.859  0.00  0.00    +0.032 A 
BRANCH  10  23
ATOM     18  C1  CHE B   02     19.897  66.808   8.308  0.00  0.00    +0.065 C 
ATOM     19  C2  CHE B   02     20.592  66.971   9.135  0.00  0.00    +0.039 A 
ATOM     20  C3  CHE B   02     17.033  68.720   2.186  0.00  0.00    +0.023 A 
ATOM     21  C4  CHE B   02     17.711  68.857   3.016  0.00  0.00    +0.004 A 
ATOM     22  C5  CHE B   02     21.494  67.449   9.928  0.00  0.00    +0.030 A 
ATOM     23  C6  CHE B   02     20.493  67.716   8.209  0.00  0.00    +0.092 A 
ATOM     24  N6  CHE B   02     19.365  67.791   6.511  0.00  0.00    -0.250 NA
ENDBRANCH  10  23
ENDBRANCH   1  17
BRANCH   7  25
ATOM     25  C18 CHE B   02     23.062  69.430   1.773  0.00  0.00    +0.121 C 
BRANCH  25  26
ATOM     26  C19 CHE B   02     23.933  70.330  10.756  0.00  0.00    +0.003 C 
BRANCH  26  27
ATOM     27  C20 CHE B   02     23.695  70.009   7.751  0.00  0.00    -0.077 C 
BRANCH  27  28
ATOM     28  N5  CHE B   02     24.880  69.080   3.908  0.00  0.00    +0.380 N 
ATOM     29  C21 CHE B   02     25.922  68.531   3.037  0.00  0.00    -0.079 C 
ATOM     30  C22 CHE B   02     26.610  68.452   5.114  0.00  0.00    -0.020 C 
ATOM     31  C23 CHE B   02     26.708  68.091   2.136  0.00  0.00    -0.020 C 
ATOM     32  C24 CHE B   02     25.448  68.945   4.974  0.00  0.00    -0.079 C 
ATOM     33  H22 CHE B   02     24.559  69.109   2.873  0.00  0.00    -0.082 HD
ENDBRANCH  27  28
ENDBRANCH  26  27
ENDBRANCH  25  26
ENDBRANCH   7  25
TORSDOF 6
ENDMDL
MODEL 5
REMARK VINA RESULT:     -10.1      3.297      7.782
REMARK  Name = dock_mp/CHEMBL2/CHEMBL206233.pdb
REMARK  7 active torsions:
REMARK  status: ('A' for Active; 'I' for Inactive)
REMARK    1  A    between atoms: C1_1  and  C2_2
REMARK    2  A    between atoms: C6_6  and  C7_7
REMARK    3  A    between atoms: C12_14  and  C13_15
REMARK    4  A    between atoms: N4_21  and  C18_22
REMARK    5  A    between atoms: C18_22  and  C19_23
REMARK    6  A    between atoms: C19_23  and  C20_24
REMARK    7  A    between atoms: C20_24  and  N5_25
REMARK                            x       y       z     vdW  Elec       q    Type
REMARK                         _______ _______ _______ _____ _____    ______ ____
ROOT
ATOM      1  C13 CHE B   02     22.068  70.629   5.724  0.00  0.00    -0.012 A 
ATOM      2  C14 CHE B   02     24.165  69.725   3.777  0.00  0.00    +0.011 A 
ATOM      3  C15 CHE B   02     26.046  68.731   3.211  0.00  0.00    +0.030 A 
ATOM      4  C16 CHE B   02     23.663  69.603   6.431  0.00  0.00    +0.089 A 
ATOM      5  N3  CHE B   02     26.279  68.280   5.269  0.00  0.00    -0.236 NA
ATOM      6  C17 CHE B   02     21.623  70.197  10.170  0.00  0.00    +0.200 A 
ATOM      7  N4  CHE B   02     22.055  70.112   9.117  0.00  0.00    -0.330 N 
ATOM      8  C25 CHE B   02     22.271  70.201   7.737  0.00  0.00    +0.069 A 
ATOM      9  C26 CHE B   02     25.357  69.024   3.875  0.00  0.00    +0.036 A 
ENDROOT
BRANCH   1  17
ATOM     10  C7  CHE B   02     22.672  69.682   3.204  0.00  0.00    +0.119 A 
ATOM     11  N1  CHE B   02     18.614  67.747   7.231  0.00  0.00    -0.169 NA
ATOM     12  N2  CHE B   02     20.063  68.598   6.040  0.00  0.00    -0.267 N 
ATOM     13  C8  CHE B   02     22.541  69.404   2.998  0.00  0.00    +0.144 C 
ATOM     14  C9  CHE B   02     19.010  68.590   7.854  0.00  0.00    +0.029 C 
ATOM     15  C10 CHE B   02     25.088  71.473   1.799  0.00  0.00    +0.057 C 
ATOM     16  C11 CHE B   02     24.879  71.029   1.471  0.00  0.00    +0.048 A 
ATOM     17  C12 CHE B   02     23.008  70.396   3.732  0.00  0.00    +0.032 A 
BRANCH  10  23
ATOM     18  C1  CHE B   02     19.393  67.976   5.258  0.00  0.00    +0.065 C 
ATOM     19  C2  CHE B   02     19.024  67.931   6.285  0.00  0.00    +0.039 A 
ATOM     20  C3  CHE B   02     24.084  70.076   0.470  0.00  0.00    +0.023 A 
ATOM     21  C4  CHE B   02     23.698  70.016   1.477  0.00  0.00    +0.004 A 
ATOM     22  C5  CHE B   02     18.874  68.071   7.562  0.00  0.00    +0.030 A 
ATOM     23  C6  CHE B   02     20.021  68.508   5.974  0.00  0.00    +0.092 A 
ATOM     24  N6  CHE B   02     21.035  68.832   4.234  0.00  0.00    -0.250 NA
ENDBRANCH  10  23
ENDBRANCH   1  17
BRANCH   7  25
ATOM     25  C18 CHE B   02     27.239  67.767   5.017  0.00  0.00    +0.121 C 
BRANCH  25  26
ATOM     26  C19 CHE B   02     20.625  69.272  11.036  0.00  0.00    +0.003 C 
BRANCH  26  27
ATOM     27  C20 CHE B   02     22.851  68.723   9.054  0.00  0.00    -0.077 C 
BRANCH  27  28
ATOM     28  N5  CHE B   02     26.291  66.997   7.562  0.00  0.00    +0.380 N 
ATOM     29  C21 CHE B   02     27.444  66.129   7.812  0.00  0.00    -0.079 C 
ATOM     30  C22 CHE B   02     26.228  66.244   9.629  0.00  0.00    -0.020 C 
ATOM     31  C23 CHE B   02     28.496  65.412   7.849  0.00  0.00    -0.020 C 
ATOM     32  C24 CHE B   02     25.771  66.923   8.658  0.00  0.00    -0.079 C 
ATOM     33  H22 CHE B   02     26.908  66.926   6.673  0.00  0.00    -0.082 HD
ENDBRANCH  27  28
ENDBRANCH  26  27
ENDBRANCH  25  26
ENDBRANCH   7  25
TORSDOF 6
ENDMDL
MODEL 6
REMARK VINA RESULT:     -10.0      2.054      6.687
REMARK  Name = dock_mp/CHEMBL2/CHEMBL206233.pdb
REMARK  7 active torsions:
REMARK  status: ('A' for Active; 'I' for Inactive)
REMARK    1  A    between atoms: C1_1  and  C2_2
REMARK    2  A    between atoms: C6_6  and  C7_7
REMARK    3  A    between atoms: C12_14  and  C13_15
REMARK    4  A    between atoms: N4_21  and  C18_22
REMARK    5  A    between atoms: C18_22  and  C19_23
REMARK    6  A    between atoms: C19_23  and  C20_24
REMARK    7  A    between atoms: C20_24  and  N5_25
REMARK                            x       y       z     vdW  Elec       q    Type
REMARK                         _______ _______ _______ _____ _____    ______ ____
ROOT
ATOM      1  C13 CHE B   02     21.495  70.008   9.267  0.00  0.00    -0.012 A 
ATOM      2  C14 CHE B   02     19.338  68.376  10.566  0.00  0.00    +0.011 A 
ATOM      3  C15 CHE B   02     17.564  67.072  10.559  0.00  0.00    +0.030 A 
ATOM      4  C16 CHE B   02     20.154  69.063   8.081  0.00  0.00    +0.089 A 
ATOM      5  N3  CHE B   02     17.637  67.199   8.444  0.00  0.00    -0.236 NA
ATOM      6  C17 CHE B   02     22.507  70.900   4.985  0.00  0.00    +0.200 A 
ATOM      7  N4  CHE B   02     21.973  70.476   5.900  0.00  0.00    -0.330 N 
ATOM      8  C25 CHE B   02     21.589  70.148   7.206  0.00  0.00    +0.069 A 
ATOM      9  C26 CHE B   02     18.276  67.611  10.108  0.00  0.00    +0.036 A 
ENDROOT
BRANCH   1  17
ATOM     10  C7  CHE B   02     20.770  68.356  11.354  0.00  0.00    +0.119 A 
ATOM     11  N1  CHE B   02     25.585  68.169   7.721  0.00  0.00    -0.169 NA
ATOM     12  N2  CHE B   02     23.867  68.452   8.819  0.00  0.00    -0.267 N 
ATOM     13  C8  CHE B   02     20.924  68.056  11.507  0.00  0.00    +0.144 C 
ATOM     14  C9  CHE B   02     25.120  69.076   7.258  0.00  0.00    +0.029 C 
ATOM     15  C10 CHE B   02     17.907  69.336  12.717  0.00  0.00    +0.057 C 
ATOM     16  C11 CHE B   02     18.152  68.858  12.961  0.00  0.00    +0.048 A 
ATOM     17  C12 CHE B   02     20.375  69.125  10.961  0.00  0.00    +0.032 A 
BRANCH  10  23
ATOM     18  C1  CHE B   02     24.532  67.740   9.525  0.00  0.00    +0.065 C 
ATOM     19  C2  CHE B   02     25.031  68.028   8.597  0.00  0.00    +0.039 A 
ATOM     20  C3  CHE B   02     18.974  67.792  13.820  0.00  0.00    +0.023 A 
ATOM     21  C4  CHE B   02     19.490  68.062  12.910  0.00  0.00    +0.004 A 
ATOM     22  C5  CHE B   02     25.315  68.530   7.439  0.00  0.00    +0.030 A 
ATOM     23  C6  CHE B   02     23.916  68.355   8.868  0.00  0.00    +0.092 A 
ATOM     24  N6  CHE B   02     22.648  68.051  10.436  0.00  0.00    -0.250 NA
ENDBRANCH  10  23
ENDBRANCH   1  17
BRANCH   7  25
ATOM     25  C18 CHE B   02     16.736  66.538   8.404  0.00  0.00    +0.121 C 
BRANCH  25  26
ATOM     26  C19 CHE B   02     23.369  70.659   3.791  0.00  0.00    +0.003 C 
BRANCH  26  27
ATOM     27  C20 CHE B   02     21.123  69.276   5.284  0.00  0.00    -0.077 C 
BRANCH  27  28
ATOM     28  N5  CHE B   02     17.457  67.461   5.832  0.00  0.00    +0.380 N 
ATOM     29  C21 CHE B   02     16.183  67.050   5.237  0.00  0.00    -0.079 C 
ATOM     30  C22 CHE B   02     17.402  68.033   3.708  0.00  0.00    -0.020 C 
ATOM     31  C23 CHE B   02     15.031  66.625   4.894  0.00  0.00    -0.020 C 
ATOM     32  C24 CHE B   02     17.959  67.965   4.847  0.00  0.00    -0.079 C 
ATOM     33  H22 CHE B   02     16.836  66.970   6.574  0.00  0.00    -0.082 HD
ENDBRANCH  27  28
ENDBRANCH  26  27
ENDBRANCH  25  26
ENDBRANCH   7  25
TORSDOF 6
ENDMDL
