MODEL 1
REMARK VINA RESULT:      -9.6      0.000      0.000
REMARK  Name = dock_mp/CHEMBL2/CHEMBL226734.pdb
REMARK  6 active torsions:
REMARK  status: ('A' for Active; 'I' for Inactive)
REMARK    1  A    between atoms: C1_1  and  C2_2
REMARK    2  A    between atoms: C6_6  and  C7_7
REMARK    3  A    between atoms: N2_10  and  C9_11
REMARK    4  A    between atoms: C9_11  and  C10_12
REMARK    5  A    between atoms: C14_16  and  C15_17
REMARK    6  A    between atoms: C17_21  and  C18_22
REMARK                            x       y       z     vdW  Elec       q    Type
REMARK                         _______ _______ _______ _____ _____    ______ ____
ROOT
ATOM      1  C7  CHE B   07     26.075  68.709   6.406  0.00  0.00    +0.094 A 
ATOM      2  N1  CHE B   07     22.474  70.576  11.009  0.00  0.00    -0.324 N 
ATOM      3  C8  CHE B   07     25.772  68.832   2.782  0.00  0.00    +0.194 A 
ATOM      4  N2  CHE B   07     24.232  69.615   2.957  0.00  0.00    -0.311 N 
ATOM      5  N4  CHE B   07     25.559  68.958   4.937  0.00  0.00    -0.214 NA
ATOM      6  C17 CHE B   07     23.960  69.820  10.799  0.00  0.00    +0.100 A 
ATOM      7  H7  CHE B   07     23.472  70.046   8.203  0.00  0.00    +0.169 HD
ATOM      8  H8  CHE B   07     20.782  71.417   8.799  0.00  0.00    +0.149 HD
ENDROOT
BRANCH   6   9
ATOM      9  C18 CHE B   07     26.134  68.698   8.733  0.00  0.00    +0.006 A 
ATOM     10  C19 CHE B   07     24.755  68.535  10.182  0.00  0.00    +0.014 A 
ATOM     11  C20 CHE B   07     27.620  67.480   7.392  0.00  0.00    +0.050 A 
ATOM     12  C21 CHE B   07     24.209  66.600  11.053  0.00  0.00    +0.166 A 
ATOM     13  O1  CHE B   07     25.688  65.471   9.706  0.00  0.00    -0.453 OA
ATOM     14  C22 CHE B   07     25.738  64.825   9.757  0.00  0.00    +0.466 C 
ATOM     15  O2  CHE B   07     27.058  65.744   8.248  0.00  0.00    -0.453 OA
ATOM     16  C23 CHE B   07     29.069  66.739   6.014  0.00  0.00    +0.167 A 
ATOM     17  C24 CHE B   07     27.596  67.788   7.368  0.00  0.00    +0.059 A 
ENDBRANCH   6   9
BRANCH   1  23
ATOM     18  C1  CHE B   07     25.889  70.659  10.738  0.00  0.00    +0.065 C 
ATOM     19  C2  CHE B   07     27.654  70.697   6.055  0.00  0.00    +0.039 A 
ATOM     20  C3  CHE B   07     25.472  71.111  12.749  0.00  0.00    +0.023 A 
ATOM     21  C4  CHE B   07     25.370  70.946  12.700  0.00  0.00    +0.004 A 
ATOM     22  C5  CHE B   07     25.209  70.122  11.518  0.00  0.00    +0.030 A 
ATOM     23  C6  CHE B   07     24.770  69.413  11.308  0.00  0.00    +0.090 A 
ATOM     24  N5  CHE B   07     27.138  69.864   5.809  0.00  0.00    -0.250 NA
ENDBRANCH   1  23
BRANCH   4  25
ATOM     25  C9  CHE B   07     23.656  69.905   2.595  0.00  0.00    +0.139 C 
BRANCH  25  26
ATOM     26  C10 CHE B   07     17.548  67.391   7.336  0.00  0.00    -0.029 A 
ATOM     27  C11 CHE B   07     22.048  70.071   1.254  0.00  0.00    +0.005 A 
ATOM     28  C12 CHE B   07     16.657  67.876   5.363  0.00  0.00    +0.002 A 
ATOM     29  C13 CHE B   07     16.083  67.936   4.884  0.00  0.00    +0.019 A 
ATOM     30  C14 CHE B   07     15.948  67.556   6.001  0.00  0.00    +0.052 A 
ATOM     31  C16 CHE B   07     19.488  68.763   4.036  0.00  0.00    +0.024 A 
BRANCH  30  32
ATOM     32  C15 CHE B   07     17.210  68.605   3.366  0.00  0.00    +0.099 C 
ATOM     33  N3  CHE B   07     17.945  69.336   1.528  0.00  0.00    -0.191 NA
ENDBRANCH  30  32
ENDBRANCH  25  26
ENDBRANCH   4  25
TORSDOF 5
ENDMDL
MODEL 2
REMARK VINA RESULT:      -9.6      3.181      7.471
REMARK  Name = dock_mp/CHEMBL2/CHEMBL226734.pdb
REMARK  6 active torsions:
REMARK  status: ('A' for Active; 'I' for Inactive)
REMARK    1  A    between atoms: C1_1  and  C2_2
REMARK    2  A    between atoms: C6_6  and  C7_7
REMARK    3  A    between atoms: N2_10  and  C9_11
REMARK    4  A    between atoms: C9_11  and  C10_12
REMARK    5  A    between atoms: C14_16  and  C15_17
REMARK    6  A    between atoms: C17_21  and  C18_22
REMARK                            x       y       z     vdW  Elec       q    Type
REMARK                         _______ _______ _______ _____ _____    ______ ____
ROOT
ATOM      1  C7  CHE B   07     25.846  69.581   6.102  0.00  0.00    +0.094 A 
ATOM      2  N1  CHE B   07     22.666  69.999   0.872  0.00  0.00    -0.324 N 
ATOM      3  C8  CHE B   07     24.921  68.832   9.542  0.00  0.00    +0.194 A 
ATOM      4  N2  CHE B   07     23.268  68.661   9.038  0.00  0.00    -0.311 N 
ATOM      5  N4  CHE B   07     25.041  69.225   7.411  0.00  0.00    -0.214 NA
ATOM      6  C17 CHE B   07     24.255  70.157   1.397  0.00  0.00    +0.100 A 
ATOM      7  H7  CHE B   07     23.297  69.584   3.801  0.00  0.00    +0.169 HD
ATOM      8  H8  CHE B   07     20.456  69.340   2.642  0.00  0.00    +0.149 HD
ENDROOT
BRANCH   6   9
ATOM      9  C18 CHE B   07     26.291  70.044   3.865  0.00  0.00    +0.006 A 
ATOM     10  C19 CHE B   07     25.224  70.961   2.434  0.00  0.00    +0.014 A 
ATOM     11  C20 CHE B   07     27.799  70.404   5.622  0.00  0.00    +0.050 A 
ATOM     12  C21 CHE B   07     25.282  73.134   2.155  0.00  0.00    +0.166 A 
ATOM     13  O1  CHE B   07     26.762  73.411   3.890  0.00  0.00    -0.453 OA
ATOM     14  C22 CHE B   07     26.968  74.009   4.042  0.00  0.00    +0.466 C 
ATOM     15  O2  CHE B   07     27.794  72.393   5.296  0.00  0.00    -0.453 OA
ATOM     16  C23 CHE B   07     29.154  70.322   7.266  0.00  0.00    +0.167 A 
ATOM     17  C24 CHE B   07     27.700  70.119   5.549  0.00  0.00    +0.059 A 
ENDBRANCH   6   9
BRANCH   1  23
ATOM     18  C1  CHE B   07     25.822  68.736   1.424  0.00  0.00    +0.065 C 
ATOM     19  C2  CHE B   07     26.699  67.164   6.093  0.00  0.00    +0.039 A 
ATOM     20  C3  CHE B   07     25.631  68.869  -0.666  0.00  0.00    +0.023 A 
ATOM     21  C4  CHE B   07     25.575  69.044  -0.588  0.00  0.00    +0.004 A 
ATOM     22  C5  CHE B   07     25.466  69.612   0.742  0.00  0.00    +0.030 A 
ATOM     23  C6  CHE B   07     25.223  70.365   1.079  0.00  0.00    +0.090 A 
ATOM     24  N5  CHE B   07     26.414  68.049   6.490  0.00  0.00    -0.250 NA
ENDBRANCH   1  23
BRANCH   4  25
ATOM     25  C9  CHE B   07     22.579  68.513   9.264  0.00  0.00    +0.139 C 
BRANCH  25  26
ATOM     26  C10 CHE B   07     18.570  69.177   2.222  0.00  0.00    -0.029 A 
ATOM     27  C11 CHE B   07     20.697  67.774   9.833  0.00  0.00    +0.005 A 
ATOM     28  C12 CHE B   07     17.135  68.334   3.688  0.00  0.00    +0.002 A 
ATOM     29  C13 CHE B   07     16.463  68.070   3.891  0.00  0.00    +0.019 A 
ATOM     30  C14 CHE B   07     16.698  68.442   2.788  0.00  0.00    +0.052 A 
ATOM     31  C16 CHE B   07     19.271  68.333   6.137  0.00  0.00    +0.024 A 
BRANCH  30  32
ATOM     32  C15 CHE B   07     16.997  67.721   5.793  0.00  0.00    +0.099 C 
ATOM     33  N3  CHE B   07     17.297  67.148   7.801  0.00  0.00    -0.191 NA
ENDBRANCH  30  32
ENDBRANCH  25  26
ENDBRANCH   4  25
TORSDOF 5
ENDMDL
MODEL 3
REMARK VINA RESULT:      -9.3      3.293      6.377
REMARK  Name = dock_mp/CHEMBL2/CHEMBL226734.pdb
REMARK  6 active torsions:
REMARK  status: ('A' for Active; 'I' for Inactive)
REMARK    1  A    between atoms: C1_1  and  C2_2
REMARK    2  A    between atoms: C6_6  and  C7_7
REMARK    3  A    between atoms: N2_10  and  C9_11
REMARK    4  A    between atoms: C9_11  and  C10_12
REMARK    5  A    between atoms: C14_16  and  C15_17
REMARK    6  A    between atoms: C17_21  and  C18_22
REMARK                            x       y       z     vdW  Elec       q    Type
REMARK                         _______ _______ _______ _____ _____    ______ ____
ROOT
ATOM      1  C7  CHE B   07     23.700  67.387  10.312  0.00  0.00    +0.094 A 
ATOM      2  N1  CHE B   07     25.043  61.702   8.436  0.00  0.00    -0.324 N 
ATOM      3  C8  CHE B   07     20.586  69.237  10.665  0.00  0.00    +0.194 A 
ATOM      4  N2  CHE B   07     19.718  67.846  10.092  0.00  0.00    -0.311 N 
ATOM      5  N4  CHE B   07     22.179  67.807  10.314  0.00  0.00    -0.214 NA
ATOM      6  C17 CHE B   07     25.847  63.067   8.995  0.00  0.00    +0.100 A 
ATOM      7  H7  CHE B   07     23.440  64.166   9.151  0.00  0.00    +0.169 HD
ATOM      8  H8  CHE B   07     22.157  61.568   8.112  0.00  0.00    +0.149 HD
ENDROOT
BRANCH   6   9
ATOM      9  C18 CHE B   07     25.610  66.086  10.036  0.00  0.00    +0.006 A 
ATOM     10  C19 CHE B   07     25.922  64.114  10.245  0.00  0.00    +0.014 A 
ATOM     11  C20 CHE B   07     25.531  68.120  11.197  0.00  0.00    +0.050 A 
ATOM     12  C21 CHE B   07     26.391  63.211  12.185  0.00  0.00    +0.166 A 
ATOM     13  O1  CHE B   07     26.297  65.241  13.257  0.00  0.00    -0.453 OA
ATOM     14  C22 CHE B   07     26.406  65.270  13.897  0.00  0.00    +0.466 C 
ATOM     15  O2  CHE B   07     25.966  67.208  12.941  0.00  0.00    -0.453 OA
ATOM     16  C23 CHE B   07     25.371  70.132  11.884  0.00  0.00    +0.167 A 
ATOM     17  C24 CHE B   07     25.479  68.106  10.891  0.00  0.00    +0.059 A 
ENDBRANCH   6   9
BRANCH   1  23
ATOM     18  C1  CHE B   07     26.733  64.630   7.903  0.00  0.00    +0.065 C 
ATOM     19  C2  CHE B   07     23.947  68.778   8.173  0.00  0.00    +0.039 A 
ATOM     20  C3  CHE B   07     28.038  63.104   7.278  0.00  0.00    +0.023 A 
ATOM     21  C4  CHE B   07     27.971  63.057   7.460  0.00  0.00    +0.004 A 
ATOM     22  C5  CHE B   07     27.076  63.651   8.435  0.00  0.00    +0.030 A 
ATOM     23  C6  CHE B   07     26.788  63.449   9.219  0.00  0.00    +0.090 A 
ATOM     24  N5  CHE B   07     23.608  68.542   9.095  0.00  0.00    -0.250 NA
ENDBRANCH   1  23
BRANCH   4  25
ATOM     25  C9  CHE B   07     19.049  67.574   9.932  0.00  0.00    +0.139 C 
BRANCH  25  26
ATOM     26  C10 CHE B   07     18.545  69.505   2.050  0.00  0.00    -0.029 A 
ATOM     27  C11 CHE B   07     17.086  66.953   9.519  0.00  0.00    +0.005 A 
ATOM     28  C12 CHE B   07     16.588  68.625   2.610  0.00  0.00    +0.002 A 
ATOM     29  C13 CHE B   07     15.887  68.403   2.463  0.00  0.00    +0.019 A 
ATOM     30  C14 CHE B   07     16.592  68.887   1.639  0.00  0.00    +0.052 A 
ATOM     31  C16 CHE B   07     17.437  68.109   5.705  0.00  0.00    +0.024 A 
BRANCH  30  32
ATOM     32  C15 CHE B   07     15.524  67.765   4.331  0.00  0.00    +0.099 C 
ATOM     33  N3  CHE B   07     14.678  67.037   6.120  0.00  0.00    -0.191 NA
ENDBRANCH  30  32
ENDBRANCH  25  26
ENDBRANCH   4  25
TORSDOF 5
ENDMDL
MODEL 4
REMARK VINA RESULT:      -9.1      3.252      6.585
REMARK  Name = dock_mp/CHEMBL2/CHEMBL226734.pdb
REMARK  6 active torsions:
REMARK  status: ('A' for Active; 'I' for Inactive)
REMARK    1  A    between atoms: C1_1  and  C2_2
REMARK    2  A    between atoms: C6_6  and  C7_7
REMARK    3  A    between atoms: N2_10  and  C9_11
REMARK    4  A    between atoms: C9_11  and  C10_12
REMARK    5  A    between atoms: C14_16  and  C15_17
REMARK    6  A    between atoms: C17_21  and  C18_22
REMARK                            x       y       z     vdW  Elec       q    Type
REMARK                         _______ _______ _______ _____ _____    ______ ____
ROOT
ATOM      1  C7  CHE B   07     23.511  67.376  10.540  0.00  0.00    +0.094 A 
ATOM      2  N1  CHE B   07     25.052  61.773   8.573  0.00  0.00    -0.324 N 
ATOM      3  C8  CHE B   07     20.346  69.150  10.817  0.00  0.00    +0.194 A 
ATOM      4  N2  CHE B   07     19.533  67.757  10.173  0.00  0.00    -0.311 N 
ATOM      5  N4  CHE B   07     21.983  67.764  10.493  0.00  0.00    -0.214 NA
ATOM      6  C17 CHE B   07     25.804  63.139   9.198  0.00  0.00    +0.100 A 
ATOM      7  H7  CHE B   07     23.368  64.183   9.287  0.00  0.00    +0.169 HD
ATOM      8  H8  CHE B   07     22.185  61.587   8.130  0.00  0.00    +0.149 HD
ENDROOT
BRANCH   6   9
ATOM      9  C18 CHE B   07     25.459  66.123  10.308  0.00  0.00    +0.006 A 
ATOM     10  C19 CHE B   07     26.023  64.740   8.967  0.00  0.00    +0.014 A 
ATOM     11  C20 CHE B   07     25.402  68.426  10.737  0.00  0.00    +0.050 A 
ATOM     12  C21 CHE B   07     26.986  65.282   7.075  0.00  0.00    +0.166 A 
ATOM     13  O1  CHE B   07     26.896  67.525   7.563  0.00  0.00    -0.453 OA
ATOM     14  C22 CHE B   07     27.134  67.954   7.137  0.00  0.00    +0.466 C 
ATOM     15  O2  CHE B   07     26.292  68.835   8.976  0.00  0.00    -0.453 OA
ATOM     16  C23 CHE B   07     25.170  70.411  11.482  0.00  0.00    +0.167 A 
ATOM     17  C24 CHE B   07     25.289  68.221  10.941  0.00  0.00    +0.059 A 
ENDBRANCH   6   9
BRANCH   1  23
ATOM     18  C1  CHE B   07     26.280  63.564  11.183  0.00  0.00    +0.065 C 
ATOM     19  C2  CHE B   07     23.170  67.010  13.054  0.00  0.00    +0.039 A 
ATOM     20  C3  CHE B   07     27.590  61.937  10.938  0.00  0.00    +0.023 A 
ATOM     21  C4  CHE B   07     27.566  62.025  10.760  0.00  0.00    +0.004 A 
ATOM     22  C5  CHE B   07     26.827  63.157  10.237  0.00  0.00    +0.030 A 
ATOM     23  C6  CHE B   07     26.726  63.535   9.471  0.00  0.00    +0.090 A 
ATOM     24  N5  CHE B   07     23.052  67.454  12.155  0.00  0.00    -0.250 NA
ENDBRANCH   1  23
BRANCH   4  25
ATOM     25  C9  CHE B   07     18.876  67.476   9.979  0.00  0.00    +0.139 C 
BRANCH  25  26
ATOM     26  C10 CHE B   07     18.682  69.531   2.116  0.00  0.00    -0.029 A 
ATOM     27  C11 CHE B   07     16.931  66.862   9.480  0.00  0.00    +0.005 A 
ATOM     28  C12 CHE B   07     16.704  68.643   2.584  0.00  0.00    +0.002 A 
ATOM     29  C13 CHE B   07     16.010  68.423   2.406  0.00  0.00    +0.019 A 
ATOM     30  C14 CHE B   07     16.746  68.920   1.618  0.00  0.00    +0.052 A 
ATOM     31  C16 CHE B   07     17.431  68.078   5.701  0.00  0.00    +0.024 A 
BRANCH  30  32
ATOM     32  C15 CHE B   07     15.574  67.757   4.248  0.00  0.00    +0.099 C 
ATOM     33  N3  CHE B   07     14.674  67.046   6.018  0.00  0.00    -0.191 NA
ENDBRANCH  30  32
ENDBRANCH  25  26
ENDBRANCH   4  25
TORSDOF 5
ENDMDL
MODEL 5
REMARK VINA RESULT:      -9.0      1.868      2.957
REMARK  Name = dock_mp/CHEMBL2/CHEMBL226734.pdb
REMARK  6 active torsions:
REMARK  status: ('A' for Active; 'I' for Inactive)
REMARK    1  A    between atoms: C1_1  and  C2_2
REMARK    2  A    between atoms: C6_6  and  C7_7
REMARK    3  A    between atoms: N2_10  and  C9_11
REMARK    4  A    between atoms: C9_11  and  C10_12
REMARK    5  A    between atoms: C14_16  and  C15_17
REMARK    6  A    between atoms: C17_21  and  C18_22
REMARK                            x       y       z     vdW  Elec       q    Type
REMARK                         _______ _______ _______ _____ _____    ______ ____
ROOT
ATOM      1  C7  CHE B   07     26.119  68.916   6.691  0.00  0.00    +0.094 A 
ATOM      2  N1  CHE B   07     21.418  68.281  10.582  0.00  0.00    -0.324 N 
ATOM      3  C8  CHE B   07     26.341  69.510   3.108  0.00  0.00    +0.194 A 
ATOM      4  N2  CHE B   07     24.606  69.527   3.024  0.00  0.00    -0.311 N 
ATOM      5  N4  CHE B   07     25.772  69.169   5.173  0.00  0.00    -0.214 NA
ATOM      6  C17 CHE B   07     23.097  68.270  10.623  0.00  0.00    +0.100 A 
ATOM      7  H7  CHE B   07     22.956  68.704   8.011  0.00  0.00    +0.169 HD
ATOM      8  H8  CHE B   07     19.881  68.687   8.147  0.00  0.00    +0.149 HD
ENDROOT
BRANCH   6   9
ATOM      9  C18 CHE B   07     25.826  68.539   8.969  0.00  0.00    +0.006 A 
ATOM     10  C19 CHE B   07     24.453  69.124  10.311  0.00  0.00    +0.014 A 
ATOM     11  C20 CHE B   07     27.876  69.113   7.990  0.00  0.00    +0.050 A 
ATOM     12  C21 CHE B   07     24.673  70.973  11.467  0.00  0.00    +0.166 A 
ATOM     13  O1  CHE B   07     26.678  71.471  10.465  0.00  0.00    -0.453 OA
ATOM     14  C22 CHE B   07     26.995  72.014  10.634  0.00  0.00    +0.466 C 
ATOM     15  O2  CHE B   07     27.998  70.794   9.094  0.00  0.00    -0.453 OA
ATOM     16  C23 CHE B   07     29.691  69.286   6.885  0.00  0.00    +0.167 A 
ATOM     17  C24 CHE B   07     27.725  68.854   7.909  0.00  0.00    +0.059 A 
ENDBRANCH   6   9
BRANCH   1  23
ATOM     18  C1  CHE B   07     24.484  66.649  10.537  0.00  0.00    +0.065 C 
ATOM     19  C2  CHE B   07     26.753  66.509   6.079  0.00  0.00    +0.039 A 
ATOM     20  C3  CHE B   07     23.619  66.144  12.386  0.00  0.00    +0.023 A 
ATOM     21  C4  CHE B   07     23.604  66.342  12.363  0.00  0.00    +0.004 A 
ATOM     22  C5  CHE B   07     23.982  67.312  11.354  0.00  0.00    +0.030 A 
ATOM     23  C6  CHE B   07     23.917  68.164  11.254  0.00  0.00    +0.090 A 
ATOM     24  N5  CHE B   07     26.677  67.510   5.961  0.00  0.00    -0.250 NA
ENDBRANCH   1  23
BRANCH   4  25
ATOM     25  C9  CHE B   07     24.023  69.603   2.575  0.00  0.00    +0.139 C 
BRANCH  25  26
ATOM     26  C10 CHE B   07     18.006  67.604   7.665  0.00  0.00    -0.029 A 
ATOM     27  C11 CHE B   07     22.371  69.782   1.291  0.00  0.00    +0.005 A 
ATOM     28  C12 CHE B   07     17.058  68.038   5.707  0.00  0.00    +0.002 A 
ATOM     29  C13 CHE B   07     16.468  68.102   5.248  0.00  0.00    +0.019 A 
ATOM     30  C14 CHE B   07     16.362  67.782   6.387  0.00  0.00    +0.052 A 
ATOM     31  C16 CHE B   07     19.870  68.728   4.230  0.00  0.00    +0.024 A 
BRANCH  30  32
ATOM     32  C15 CHE B   07     17.561  68.646   3.656  0.00  0.00    +0.099 C 
ATOM     33  N3  CHE B   07     18.255  69.221   1.749  0.00  0.00    -0.191 NA
ENDBRANCH  30  32
ENDBRANCH  25  26
ENDBRANCH   4  25
TORSDOF 5
ENDMDL
MODEL 6
REMARK VINA RESULT:      -8.7      4.897      7.841
REMARK  Name = dock_mp/CHEMBL2/CHEMBL226734.pdb
REMARK  6 active torsions:
REMARK  status: ('A' for Active; 'I' for Inactive)
REMARK    1  A    between atoms: C1_1  and  C2_2
REMARK    2  A    between atoms: C6_6  and  C7_7
REMARK    3  A    between atoms: N2_10  and  C9_11
REMARK    4  A    between atoms: C9_11  and  C10_12
REMARK    5  A    between atoms: C14_16  and  C15_17
REMARK    6  A    between atoms: C17_21  and  C18_22
REMARK                            x       y       z     vdW  Elec       q    Type
REMARK                         _______ _______ _______ _____ _____    ______ ____
ROOT
ATOM      1  C7  CHE B   07     22.481  67.452  13.203  0.00  0.00    +0.094 A 
ATOM      2  N1  CHE B   07     21.175  62.271  16.218  0.00  0.00    -0.324 N 
ATOM      3  C8  CHE B   07     20.632  69.506  10.836  0.00  0.00    +0.194 A 
ATOM      4  N2  CHE B   07     19.296  68.403  10.954  0.00  0.00    -0.311 N 
ATOM      5  N4  CHE B   07     21.370  68.031  12.244  0.00  0.00    -0.214 NA
ATOM      6  C17 CHE B   07     22.447  63.360  16.077  0.00  0.00    +0.100 A 
ATOM      7  H7  CHE B   07     20.874  64.657  14.383  0.00  0.00    +0.169 HD
ATOM      8  H8  CHE B   07     18.665  62.550  14.778  0.00  0.00    +0.149 HD
ENDROOT
BRANCH   6   9
ATOM      9  C18 CHE B   07     23.545  66.046  14.723  0.00  0.00    +0.006 A 
ATOM     10  C19 CHE B   07     22.855  64.932  16.243  0.00  0.00    +0.014 A 
ATOM     11  C20 CHE B   07     24.298  68.186  14.138  0.00  0.00    +0.050 A 
ATOM     12  C21 CHE B   07     22.595  65.751  18.259  0.00  0.00    +0.166 A 
ATOM     13  O1  CHE B   07     23.345  67.824  17.614  0.00  0.00    -0.453 OA
ATOM     14  C22 CHE B   07     23.375  68.304  18.052  0.00  0.00    +0.466 C 
ATOM     15  O2  CHE B   07     24.030  68.857  16.020  0.00  0.00    -0.453 OA
ATOM     16  C23 CHE B   07     25.030  69.972  13.231  0.00  0.00    +0.167 A 
ATOM     17  C24 CHE B   07     24.284  67.957  13.930  0.00  0.00    +0.059 A 
ENDBRANCH   6   9
BRANCH   1  23
ATOM     18  C1  CHE B   07     24.123  63.290  14.812  0.00  0.00    +0.065 C 
ATOM     19  C2  CHE B   07     23.674  66.611  11.096  0.00  0.00    +0.039 A 
ATOM     20  C3  CHE B   07     24.604  61.607  15.977  0.00  0.00    +0.023 A 
ATOM     21  C4  CHE B   07     24.498  61.732  16.091  0.00  0.00    +0.004 A 
ATOM     22  C5  CHE B   07     23.870  63.028  15.920  0.00  0.00    +0.030 A 
ATOM     23  C6  CHE B   07     23.411  63.567  16.408  0.00  0.00    +0.090 A 
ATOM     24  N5  CHE B   07     23.135  67.244  11.669  0.00  0.00    -0.250 NA
ENDBRANCH   1  23
BRANCH   4  25
ATOM     25  C9  CHE B   07     18.610  68.256  10.719  0.00  0.00    +0.139 C 
BRANCH  25  26
ATOM     26  C10 CHE B   07     19.530  69.461   2.731  0.00  0.00    -0.029 A 
ATOM     27  C11 CHE B   07     16.738  67.604  10.024  0.00  0.00    +0.005 A 
ATOM     28  C12 CHE B   07     17.489  68.640   3.014  0.00  0.00    +0.002 A 
ATOM     29  C13 CHE B   07     16.821  68.407   2.766  0.00  0.00    +0.019 A 
ATOM     30  C14 CHE B   07     17.668  68.812   2.039  0.00  0.00    +0.052 A 
ATOM     31  C16 CHE B   07     17.773  68.407   6.243  0.00  0.00    +0.024 A 
BRANCH  30  32
ATOM     32  C15 CHE B   07     16.125  67.943   4.590  0.00  0.00    +0.099 C 
ATOM     33  N3  CHE B   07     14.967  67.352   6.250  0.00  0.00    -0.191 NA
ENDBRANCH  30  32
ENDBRANCH  25  26
ENDBRANCH   4  25
TORSDOF 5
ENDMDL
MODEL 7
REMARK VINA RESULT:      -8.2      4.748      7.437
REMARK  Name = dock_mp/CHEMBL2/CHEMBL226734.pdb
REMARK  6 active torsions:
REMARK  status: ('A' for Active; 'I' for Inactive)
REMARK    1  A    between atoms: C1_1  and  C2_2
REMARK    2  A    between atoms: C6_6  and  C7_7
REMARK    3  A    between atoms: N2_10  and  C9_11
REMARK    4  A    between atoms: C9_11  and  C10_12
REMARK    5  A    between atoms: C14_16  and  C15_17
REMARK    6  A    between atoms: C17_21  and  C18_22
REMARK                            x       y       z     vdW  Elec       q    Type
REMARK                         _______ _______ _______ _____ _____    ______ ____
ROOT
ATOM      1  C7  CHE B   07     23.468  68.136  13.030  0.00  0.00    +0.094 A 
ATOM      2  N1  CHE B   07     23.360  63.554  17.108  0.00  0.00    -0.324 N 
ATOM      3  C8  CHE B   07     20.936  69.657  10.905  0.00  0.00    +0.194 A 
ATOM      4  N2  CHE B   07     19.762  68.550  11.546  0.00  0.00    -0.311 N 
ATOM      5  N4  CHE B   07     22.113  68.491  12.304  0.00  0.00    -0.214 NA
ATOM      6  C17 CHE B   07     24.467  64.642  16.465  0.00  0.00    +0.100 A 
ATOM      7  H7  CHE B   07     22.427  65.551  15.036  0.00  0.00    +0.169 HD
ATOM      8  H8  CHE B   07     20.558  63.479  16.335  0.00  0.00    +0.149 HD
ENDROOT
BRANCH   6   9
ATOM      9  C18 CHE B   07     24.981  67.069  14.440  0.00  0.00    +0.006 A 
ATOM     10  C19 CHE B   07     24.853  66.213  16.251  0.00  0.00    +0.014 A 
ATOM     11  C20 CHE B   07     25.434  69.081  13.329  0.00  0.00    +0.050 A 
ATOM     12  C21 CHE B   07     25.226  67.336  18.096  0.00  0.00    +0.166 A 
ATOM     13  O1  CHE B   07     25.658  69.273  16.940  0.00  0.00    -0.453 OA
ATOM     14  C22 CHE B   07     25.810  69.814  17.267  0.00  0.00    +0.466 C 
ATOM     15  O2  CHE B   07     25.760  70.038  15.073  0.00  0.00    -0.453 OA
ATOM     16  C23 CHE B   07     25.775  70.694  11.977  0.00  0.00    +0.167 A 
ATOM     17  C24 CHE B   07     25.362  68.823  13.173  0.00  0.00    +0.059 A 
ENDBRANCH   6   9
BRANCH   1  23
ATOM     18  C1  CHE B   07     25.692  64.346  14.846  0.00  0.00    +0.065 C 
ATOM     19  C2  CHE B   07     24.033  66.885  10.865  0.00  0.00    +0.039 A 
ATOM     20  C3  CHE B   07     26.567  62.916  16.115  0.00  0.00    +0.023 A 
ATOM     21  C4  CHE B   07     26.492  63.062  16.229  0.00  0.00    +0.004 A 
ATOM     22  C5  CHE B   07     25.784  64.308  16.008  0.00  0.00    +0.030 A 
ATOM     23  C6  CHE B   07     25.463  64.938  16.498  0.00  0.00    +0.090 A 
ATOM     24  N5  CHE B   07     23.656  67.624  11.440  0.00  0.00    -0.250 NA
ENDBRANCH   1  23
BRANCH   4  25
ATOM     25  C9  CHE B   07     19.053  68.339  11.523  0.00  0.00    +0.139 C 
BRANCH  25  26
ATOM     26  C10 CHE B   07     17.779  68.424   3.493  0.00  0.00    -0.029 A 
ATOM     27  C11 CHE B   07     17.087  67.602  11.447  0.00  0.00    +0.005 A 
ATOM     28  C12 CHE B   07     15.916  67.656   4.419  0.00  0.00    +0.002 A 
ATOM     29  C13 CHE B   07     15.214  67.393   4.392  0.00  0.00    +0.019 A 
ATOM     30  C14 CHE B   07     15.823  67.692   3.418  0.00  0.00    +0.052 A 
ATOM     31  C16 CHE B   07     17.054  67.871   7.456  0.00  0.00    +0.024 A 
BRANCH  30  32
ATOM     32  C15 CHE B   07     15.043  67.188   6.381  0.00  0.00    +0.099 C 
ATOM     33  N3  CHE B   07     14.482  66.723   8.360  0.00  0.00    -0.191 NA
ENDBRANCH  30  32
ENDBRANCH  25  26
ENDBRANCH   4  25
TORSDOF 5
ENDMDL
MODEL 8
REMARK VINA RESULT:      -8.2      3.412      6.717
REMARK  Name = dock_mp/CHEMBL2/CHEMBL226734.pdb
REMARK  6 active torsions:
REMARK  status: ('A' for Active; 'I' for Inactive)
REMARK    1  A    between atoms: C1_1  and  C2_2
REMARK    2  A    between atoms: C6_6  and  C7_7
REMARK    3  A    between atoms: N2_10  and  C9_11
REMARK    4  A    between atoms: C9_11  and  C10_12
REMARK    5  A    between atoms: C14_16  and  C15_17
REMARK    6  A    between atoms: C17_21  and  C18_22
REMARK                            x       y       z     vdW  Elec       q    Type
REMARK                         _______ _______ _______ _____ _____    ______ ____
ROOT
ATOM      1  C7  CHE B   07     26.268  69.726   6.203  0.00  0.00    +0.094 A 
ATOM      2  N1  CHE B   07     25.494  75.149   3.440  0.00  0.00    -0.324 N 
ATOM      3  C8  CHE B   07     24.418  67.942   8.780  0.00  0.00    +0.194 A 
ATOM      4  N2  CHE B   07     23.290  69.260   8.854  0.00  0.00    -0.311 N 
ATOM      5  N4  CHE B   07     25.210  69.314   7.298  0.00  0.00    -0.214 NA
ATOM      6  C17 CHE B   07     26.565  73.855   3.397  0.00  0.00    +0.100 A 
ATOM      7  H7  CHE B   07     25.028  72.791   5.278  0.00  0.00    +0.169 HD
ATOM      8  H8  CHE B   07     23.186  75.256   5.204  0.00  0.00    +0.149 HD
ENDROOT
BRANCH   6   9
ATOM      9  C18 CHE B   07     27.349  70.978   4.566  0.00  0.00    +0.006 A 
ATOM     10  C19 CHE B   07     26.633  72.239   3.178  0.00  0.00    +0.014 A 
ATOM     11  C20 CHE B   07     27.772  68.721   5.031  0.00  0.00    +0.050 A 
ATOM     12  C21 CHE B   07     25.881  71.532   1.245  0.00  0.00    +0.166 A 
ATOM     13  O1  CHE B   07     26.323  69.339   1.769  0.00  0.00    -0.453 OA
ATOM     14  C22 CHE B   07     26.186  68.873   1.337  0.00  0.00    +0.466 C 
ATOM     15  O2  CHE B   07     27.062  68.158   3.230  0.00  0.00    -0.453 OA
ATOM     16  C23 CHE B   07     28.296  66.809   5.814  0.00  0.00    +0.167 A 
ATOM     17  C24 CHE B   07     27.837  68.944   5.237  0.00  0.00    +0.059 A 
ENDBRANCH   6   9
BRANCH   1  23
ATOM     18  C1  CHE B   07     28.361  73.612   4.435  0.00  0.00    +0.065 C 
ATOM     19  C2  CHE B   07     27.826  70.305   8.153  0.00  0.00    +0.039 A 
ATOM     20  C3  CHE B   07     28.967  75.227   3.232  0.00  0.00    +0.023 A 
ATOM     21  C4  CHE B   07     28.828  75.123   3.132  0.00  0.00    +0.004 A 
ATOM     22  C5  CHE B   07     28.022  73.942   3.369  0.00  0.00    +0.030 A 
ATOM     23  C6  CHE B   07     27.426  73.497   2.937  0.00  0.00    +0.090 A 
ATOM     24  N5  CHE B   07     27.126  69.784   7.646  0.00  0.00    -0.250 NA
ENDBRANCH   1  23
BRANCH   4  25
ATOM     25  C9  CHE B   07     22.677  69.514   9.181  0.00  0.00    +0.139 C 
BRANCH  25  26
ATOM     26  C10 CHE B   07     17.178  67.918   3.409  0.00  0.00    -0.029 A 
ATOM     27  C11 CHE B   07     20.946  69.326  10.355  0.00  0.00    +0.005 A 
ATOM     28  C12 CHE B   07     16.084  67.924   5.339  0.00  0.00    +0.002 A 
ATOM     29  C13 CHE B   07     15.466  67.856   5.758  0.00  0.00    +0.019 A 
ATOM     30  C14 CHE B   07     15.455  67.731   4.577  0.00  0.00    +0.052 A 
ATOM     31  C16 CHE B   07     18.728  68.586   7.108  0.00  0.00    +0.024 A 
BRANCH  30  32
ATOM     32  C15 CHE B   07     16.410  68.209   7.493  0.00  0.00    +0.099 C 
ATOM     33  N3  CHE B   07     16.935  68.507   9.514  0.00  0.00    -0.191 NA
ENDBRANCH  30  32
ENDBRANCH  25  26
ENDBRANCH   4  25
TORSDOF 5
ENDMDL
MODEL 9
REMARK VINA RESULT:      -8.1      3.923      6.384
REMARK  Name = dock_mp/CHEMBL2/CHEMBL226734.pdb
REMARK  6 active torsions:
REMARK  status: ('A' for Active; 'I' for Inactive)
REMARK    1  A    between atoms: C1_1  and  C2_2
REMARK    2  A    between atoms: C6_6  and  C7_7
REMARK    3  A    between atoms: N2_10  and  C9_11
REMARK    4  A    between atoms: C9_11  and  C10_12
REMARK    5  A    between atoms: C14_16  and  C15_17
REMARK    6  A    between atoms: C17_21  and  C18_22
REMARK                            x       y       z     vdW  Elec       q    Type
REMARK                         _______ _______ _______ _____ _____    ______ ____
ROOT
ATOM      1  C7  CHE B   07     24.135  67.819  11.618  0.00  0.00    +0.094 A 
ATOM      2  N1  CHE B   07     24.576  62.266  14.189  0.00  0.00    -0.324 N 
ATOM      3  C8  CHE B   07     21.326  69.850  10.510  0.00  0.00    +0.194 A 
ATOM      4  N2  CHE B   07     20.242  68.591  11.018  0.00  0.00    -0.311 N 
ATOM      5  N4  CHE B   07     22.688  68.349  11.284  0.00  0.00    -0.214 NA
ATOM      6  C17 CHE B   07     25.592  63.505  13.686  0.00  0.00    +0.100 A 
ATOM      7  H7  CHE B   07     23.368  64.758  12.971  0.00  0.00    +0.169 HD
ATOM      8  H8  CHE B   07     21.680  62.379  13.955  0.00  0.00    +0.149 HD
ENDROOT
BRANCH   6   9
ATOM      9  C18 CHE B   07     25.832  66.414  12.368  0.00  0.00    +0.006 A 
ATOM     10  C19 CHE B   07     25.995  64.414  12.391  0.00  0.00    +0.014 A 
ATOM     11  C20 CHE B   07     26.159  68.322  11.048  0.00  0.00    +0.050 A 
ATOM     12  C21 CHE B   07     26.734  63.289  10.661  0.00  0.00    +0.166 A 
ATOM     13  O1  CHE B   07     27.029  65.203   9.425  0.00  0.00    -0.453 OA
ATOM     14  C22 CHE B   07     27.258  65.159   8.818  0.00  0.00    +0.466 C 
ATOM     15  O2  CHE B   07     26.827  67.210   9.505  0.00  0.00    -0.453 OA
ATOM     16  C23 CHE B   07     26.317  70.261  10.176  0.00  0.00    +0.167 A 
ATOM     17  C24 CHE B   07     26.050  68.343  11.337  0.00  0.00    +0.059 A 
ENDBRANCH   6   9
BRANCH   1  23
ATOM     18  C1  CHE B   07     26.392  65.097  14.796  0.00  0.00    +0.065 C 
ATOM     19  C2  CHE B   07     24.095  69.390  13.642  0.00  0.00    +0.039 A 
ATOM     20  C3  CHE B   07     27.409  63.548  15.789  0.00  0.00    +0.023 A 
ATOM     21  C4  CHE B   07     27.375  63.488  15.602  0.00  0.00    +0.004 A 
ATOM     22  C5  CHE B   07     26.739  64.048  14.424  0.00  0.00    +0.030 A 
ATOM     23  C6  CHE B   07     26.589  63.792  13.617  0.00  0.00    +0.090 A 
ATOM     24  N5  CHE B   07     23.919  69.091  12.694  0.00  0.00    -0.250 NA
ENDBRANCH   1  23
BRANCH   4  25
ATOM     25  C9  CHE B   07     19.533  68.387  11.067  0.00  0.00    +0.139 C 
BRANCH  25  26
ATOM     26  C10 CHE B   07     17.477  68.395   3.201  0.00  0.00    -0.029 A 
ATOM     27  C11 CHE B   07     17.545  67.722  11.198  0.00  0.00    +0.005 A 
ATOM     28  C12 CHE B   07     15.689  67.710   4.319  0.00  0.00    +0.002 A 
ATOM     29  C13 CHE B   07     14.979  67.473   4.366  0.00  0.00    +0.019 A 
ATOM     30  C14 CHE B   07     15.499  67.734   3.332  0.00  0.00    +0.052 A 
ATOM     31  C16 CHE B   07     17.128  67.931   7.225  0.00  0.00    +0.024 A 
BRANCH  30  32
ATOM     32  C15 CHE B   07     14.998  67.305   6.366  0.00  0.00    +0.099 C 
ATOM     33  N3  CHE B   07     14.555  66.937   8.395  0.00  0.00    -0.191 NA
ENDBRANCH  30  32
ENDBRANCH  25  26
ENDBRANCH   4  25
TORSDOF 5
ENDMDL
