MODEL 1
REMARK VINA RESULT:     -11.2      0.000      0.000
REMARK  Name = dock_mp/CHEMBL2/CHEMBL202887.pdb
REMARK  5 active torsions:
REMARK  status: ('A' for Active; 'I' for Inactive)
REMARK    1  A    between atoms: C1_2  and  C7_10
REMARK    2  A    between atoms: N1_3  and  C2_4
REMARK    3  A    between atoms: C10_13  and  C11_14
REMARK    4  A    between atoms: C13_16  and  C14_17
REMARK    5  A    between atoms: C16_21  and  C17_22
REMARK                            x       y       z     vdW  Elec       q    Type
REMARK                         _______ _______ _______ _____ _____    ______ ____
ROOT
ATOM      1  C11 CHE B   08     20.615  69.335   8.473  0.00  0.00    +0.072 A 
ATOM      2  C12 CHE B   08     17.967  67.946   4.400  0.00  0.00    +0.037 A 
ATOM      3  C13 CHE B   08     19.408  68.671  10.336  0.00  0.00    -0.011 A 
ATOM      4  C22 CHE B   08     17.293  67.561   7.076  0.00  0.00    +0.028 A 
ATOM      5  C23 CHE B   08     16.627  67.228   4.074  0.00  0.00    +0.112 A 
ATOM      6  N5  CHE B   08     21.397  69.731  11.404  0.00  0.00    -0.255 NA
ENDROOT
BRANCH   1  10
ATOM      7  C7  CHE B   08     21.773  69.551   2.076  0.00  0.00    +0.037 A 
ATOM      8  C8  CHE B   08     21.179  69.793   2.465  0.00  0.00    +0.014 A 
ATOM      9  C9  CHE B   08     23.519  67.733   9.957  0.00  0.00    +0.011 A 
ATOM     10  C10 CHE B   08     20.885  69.500   6.041  0.00  0.00    +0.000 A 
ATOM     11  C24 CHE B   08     22.760  68.319   8.198  0.00  0.00    +0.011 A 
ATOM     12  C25 CHE B   08     21.701  69.442   3.251  0.00  0.00    +0.014 A 
BRANCH   7  14
ATOM     13  O1  CHE B   08     26.530  66.985   8.267  0.00  0.00    -0.270 OA
ATOM     14  C1  CHE B   08     26.306  66.593   8.134  0.00  0.00    +0.244 C 
ATOM     15  N1  CHE B   08     24.312  69.908   4.846  0.00  0.00    -0.308 N 
ATOM     16  H1  CHE B   08     24.140  69.608   4.744  0.00  0.00    +0.149 HD
BRANCH  15  17
ATOM     17  C2  CHE B   08     26.422  69.516   7.361  0.00  0.00    +0.078 C 
ATOM     18  C3  CHE B   08     25.184  69.006   2.533  0.00  0.00    +0.050 C 
ATOM     19  C4  CHE B   08     26.049  68.793   3.326  0.00  0.00    +0.161 C 
ATOM     20  O2  CHE B   08     27.753  68.380   4.920  0.00  0.00    -0.380 OA
ATOM     21  C5  CHE B   08     27.796  68.358   4.908  0.00  0.00    +0.161 C 
ATOM     22  C6  CHE B   08     26.620  68.958   5.236  0.00  0.00    +0.050 C 
ENDBRANCH  15  17
ENDBRANCH   7  14
ENDBRANCH   1  10
BRANCH   3  23
ATOM     23  C14 CHE B   08     17.185  67.502   7.141  0.00  0.00    +0.029 A 
ATOM     24  C15 CHE B   08     19.503  68.634  11.432  0.00  0.00    +0.114 A 
ATOM     25  N2  CHE B   08     19.316  68.396  12.710  0.00  0.00    -0.284 N 
ATOM     26  N3  CHE B   08     18.769  68.004  13.063  0.00  0.00    -0.172 NA
ATOM     27  C16 CHE B   08     16.450  66.977   7.615  0.00  0.00    +0.118 A 
ATOM     28  H15 CHE B   08     18.847  68.165  11.855  0.00  0.00    +0.188 HD
BRANCH  27  29
ATOM     29  C17 CHE B   08     16.841  67.047   9.677  0.00  0.00    +0.091 A 
ATOM     30  C18 CHE B   08     16.240  66.608  10.067  0.00  0.00    +0.030 A 
ATOM     31  C19 CHE B   08     17.508  67.102  13.875  0.00  0.00    +0.004 A 
ATOM     32  C20 CHE B   08     17.284  67.047  12.863  0.00  0.00    +0.020 A 
ATOM     33  C21 CHE B   08     15.338  66.273   7.178  0.00  0.00    +0.111 A 
ATOM     34  N4  CHE B   08     16.588  66.970   8.683  0.00  0.00    -0.253 NA
ENDBRANCH  27  29
ENDBRANCH   3  23
TORSDOF 5
ENDMDL
MODEL 2
REMARK VINA RESULT:     -11.1      2.396      5.999
REMARK  Name = dock_mp/CHEMBL2/CHEMBL202887.pdb
REMARK  5 active torsions:
REMARK  status: ('A' for Active; 'I' for Inactive)
REMARK    1  A    between atoms: C1_2  and  C7_10
REMARK    2  A    between atoms: N1_3  and  C2_4
REMARK    3  A    between atoms: C10_13  and  C11_14
REMARK    4  A    between atoms: C13_16  and  C14_17
REMARK    5  A    between atoms: C16_21  and  C17_22
REMARK                            x       y       z     vdW  Elec       q    Type
REMARK                         _______ _______ _______ _____ _____    ______ ____
ROOT
ATOM      1  C11 CHE B   08     19.605  69.530   6.557  0.00  0.00    +0.072 A 
ATOM      2  C12 CHE B   08     19.839  68.836  11.556  0.00  0.00    +0.037 A 
ATOM      3  C13 CHE B   08     17.722  68.415   5.795  0.00  0.00    -0.011 A 
ATOM      4  C22 CHE B   08     17.913  67.861   9.794  0.00  0.00    +0.028 A 
ATOM      5  C23 CHE B   08     19.029  68.111  12.667  0.00  0.00    +0.112 A 
ATOM      6  N5  CHE B   08     18.612  69.365   3.667  0.00  0.00    -0.255 NA
ENDROOT
BRANCH   1  10
ATOM      7  C7  CHE B   08     23.947  71.359  11.040  0.00  0.00    +0.037 A 
ATOM      8  C8  CHE B   08     23.216  71.210  11.114  0.00  0.00    +0.014 A 
ATOM      9  C9  CHE B   08     21.433  69.335   3.422  0.00  0.00    +0.011 A 
ATOM     10  C10 CHE B   08     21.104  70.213   8.374  0.00  0.00    +0.000 A 
ATOM     11  C24 CHE B   08     21.664  69.760   5.367  0.00  0.00    +0.011 A 
ATOM     12  C25 CHE B   08     23.276  71.033  10.124  0.00  0.00    +0.014 A 
BRANCH   7  14
ATOM     13  O1  CHE B   08     25.304  69.864   3.074  0.00  0.00    -0.270 OA
ATOM     14  C1  CHE B   08     24.866  70.034   3.079  0.00  0.00    +0.244 C 
ATOM     15  N1  CHE B   08     25.934  70.227   8.038  0.00  0.00    -0.308 N 
ATOM     16  H1  CHE B   08     25.599  70.357   8.041  0.00  0.00    +0.149 HD
BRANCH  15  17
ATOM     17  C2  CHE B   08     27.082  69.420   5.044  0.00  0.00    +0.078 C 
ATOM     18  C3  CHE B   08     25.440  68.177   9.611  0.00  0.00    +0.050 C 
ATOM     19  C4  CHE B   08     25.842  67.724   8.584  0.00  0.00    +0.161 C 
ATOM     20  O2  CHE B   08     26.642  66.849   6.533  0.00  0.00    -0.380 OA
ATOM     21  C5  CHE B   08     26.647  66.800   6.525  0.00  0.00    +0.161 C 
ATOM     22  C6  CHE B   08     26.507  68.135   6.743  0.00  0.00    +0.050 C 
ENDBRANCH  15  17
ENDBRANCH   7  14
ENDBRANCH   1  10
BRANCH   3  23
ATOM     23  C14 CHE B   08     17.798  67.783   9.809  0.00  0.00    +0.029 A 
ATOM     24  C15 CHE B   08     17.257  68.117   4.843  0.00  0.00    +0.114 A 
ATOM     25  N2  CHE B   08     16.520  67.541   3.922  0.00  0.00    -0.284 N 
ATOM     26  N3  CHE B   08     15.990  67.000   3.983  0.00  0.00    -0.172 NA
ATOM     27  C16 CHE B   08     17.087  67.056   9.891  0.00  0.00    +0.118 A 
ATOM     28  H15 CHE B   08     16.623  67.469   4.916  0.00  0.00    +0.188 HD
BRANCH  27  29
ATOM     29  C17 CHE B   08     16.352  66.660   7.964  0.00  0.00    +0.091 A 
ATOM     30  C18 CHE B   08     15.670  66.176   8.045  0.00  0.00    +0.030 A 
ATOM     31  C19 CHE B   08     14.751  65.775   4.127  0.00  0.00    +0.004 A 
ATOM     32  C20 CHE B   08     15.087  65.950   5.094  0.00  0.00    +0.020 A 
ATOM     33  C21 CHE B   08     16.416  66.516  10.977  0.00  0.00    +0.111 A 
ATOM     34  N4  CHE B   08     16.654  66.812   8.935  0.00  0.00    -0.253 NA
ENDBRANCH  27  29
ENDBRANCH   3  23
TORSDOF 5
ENDMDL
MODEL 3
REMARK VINA RESULT:     -11.0      1.819      2.557
REMARK  Name = dock_mp/CHEMBL2/CHEMBL202887.pdb
REMARK  5 active torsions:
REMARK  status: ('A' for Active; 'I' for Inactive)
REMARK    1  A    between atoms: C1_2  and  C7_10
REMARK    2  A    between atoms: N1_3  and  C2_4
REMARK    3  A    between atoms: C10_13  and  C11_14
REMARK    4  A    between atoms: C13_16  and  C14_17
REMARK    5  A    between atoms: C16_21  and  C17_22
REMARK                            x       y       z     vdW  Elec       q    Type
REMARK                         _______ _______ _______ _____ _____    ______ ____
ROOT
ATOM      1  C11 CHE B   08     20.431  69.010   6.805  0.00  0.00    +0.072 A 
ATOM      2  C12 CHE B   08     18.649  69.050   2.077  0.00  0.00    +0.037 A 
ATOM      3  C13 CHE B   08     18.680  68.399   8.195  0.00  0.00    -0.011 A 
ATOM      4  C22 CHE B   08     17.258  68.431   4.412  0.00  0.00    +0.028 A 
ATOM      5  C23 CHE B   08     17.308  68.776   1.339  0.00  0.00    +0.112 A 
ATOM      6  N5  CHE B   08     20.522  68.707   9.848  0.00  0.00    -0.255 NA
ENDROOT
BRANCH   1  10
ATOM      7  C7  CHE B   08     23.255  70.372   1.107  0.00  0.00    +0.037 A 
ATOM      8  C8  CHE B   08     22.549  70.167   1.256  0.00  0.00    +0.014 A 
ATOM      9  C9  CHE B   08     23.015  69.437   9.324  0.00  0.00    +0.011 A 
ATOM     10  C10 CHE B   08     21.331  69.488   4.574  0.00  0.00    +0.000 A 
ATOM     11  C24 CHE B   08     22.691  69.559   7.351  0.00  0.00    +0.011 A 
ATOM     12  C25 CHE B   08     22.880  70.155   2.207  0.00  0.00    +0.014 A 
BRANCH   7  14
ATOM     13  O1  CHE B   08     26.497  69.962   8.647  0.00  0.00    -0.270 OA
ATOM     14  C1  CHE B   08     26.328  70.400   8.627  0.00  0.00    +0.244 C 
ATOM     15  N1  CHE B   08     25.043  68.742   4.004  0.00  0.00    -0.308 N 
ATOM     16  H1  CHE B   08     24.913  69.077   3.988  0.00  0.00    +0.149 HD
BRANCH  15  17
ATOM     17  C2  CHE B   08     26.506  67.950   6.861  0.00  0.00    +0.078 C 
ATOM     18  C3  CHE B   08     26.340  67.954   1.854  0.00  0.00    +0.050 C 
ATOM     19  C4  CHE B   08     26.988  67.597   2.789  0.00  0.00    +0.161 C 
ATOM     20  O2  CHE B   08     28.259  66.898   4.662  0.00  0.00    -0.380 OA
ATOM     21  C5  CHE B   08     28.302  66.873   4.657  0.00  0.00    +0.161 C 
ATOM     22  C6  CHE B   08     27.131  67.551   4.783  0.00  0.00    +0.050 C 
ENDBRANCH  15  17
ENDBRANCH   7  14
ENDBRANCH   1  10
BRANCH   3  23
ATOM     23  C14 CHE B   08     17.126  68.394   4.439  0.00  0.00    +0.029 A 
ATOM     24  C15 CHE B   08     18.540  68.052   9.230  0.00  0.00    +0.114 A 
ATOM     25  N2  CHE B   08     18.078  67.494  10.324  0.00  0.00    -0.284 N 
ATOM     26  N3  CHE B   08     17.451  67.081  10.439  0.00  0.00    -0.172 NA
ATOM     27  C16 CHE B   08     16.284  67.839   4.593  0.00  0.00    +0.118 A 
ATOM     28  H15 CHE B   08     17.789  67.558   9.367  0.00  0.00    +0.188 HD
BRANCH  27  29
ATOM     29  C17 CHE B   08     16.235  67.298   6.622  0.00  0.00    +0.091 A 
ATOM     30  C18 CHE B   08     15.556  66.819   6.742  0.00  0.00    +0.030 A 
ATOM     31  C19 CHE B   08     16.008  66.125  10.701  0.00  0.00    +0.004 A 
ATOM     32  C20 CHE B   08     16.000  66.373   9.693  0.00  0.00    +0.020 A 
ATOM     33  C21 CHE B   08     15.273  67.380   3.763  0.00  0.00    +0.111 A 
ATOM     34  N4  CHE B   08     16.195  67.523   5.619  0.00  0.00    -0.253 NA
ENDBRANCH  27  29
ENDBRANCH   3  23
TORSDOF 5
ENDMDL
MODEL 4
REMARK VINA RESULT:     -10.9      3.235      8.402
REMARK  Name = dock_mp/CHEMBL2/CHEMBL202887.pdb
REMARK  5 active torsions:
REMARK  status: ('A' for Active; 'I' for Inactive)
REMARK    1  A    between atoms: C1_2  and  C7_10
REMARK    2  A    between atoms: N1_3  and  C2_4
REMARK    3  A    between atoms: C10_13  and  C11_14
REMARK    4  A    between atoms: C13_16  and  C14_17
REMARK    5  A    between atoms: C16_21  and  C17_22
REMARK                            x       y       z     vdW  Elec       q    Type
REMARK                         _______ _______ _______ _____ _____    ______ ____
ROOT
ATOM      1  C11 CHE B   08     20.875  69.238   9.397  0.00  0.00    +0.072 A 
ATOM      2  C12 CHE B   08     16.203  67.346   9.751  0.00  0.00    +0.037 A 
ATOM      3  C13 CHE B   08     21.278  69.659   7.154  0.00  0.00    -0.011 A 
ATOM      4  C22 CHE B   08     17.542  68.145   7.441  0.00  0.00    +0.028 A 
ATOM      5  C23 CHE B   08     15.021  66.987   8.808  0.00  0.00    +0.112 A 
ATOM      6  N5  CHE B   08     23.432  70.393   8.176  0.00  0.00    -0.255 NA
ENDROOT
BRANCH   1  10
ATOM      7  C7  CHE B   08     17.378  66.865  14.341  0.00  0.00    +0.037 A 
ATOM      8  C8  CHE B   08     17.184  67.356  13.808  0.00  0.00    +0.014 A 
ATOM      9  C9  CHE B   08     24.151  67.687   9.661  0.00  0.00    +0.011 A 
ATOM     10  C10 CHE B   08     19.413  68.448  11.201  0.00  0.00    +0.000 A 
ATOM     11  C24 CHE B   08     22.352  67.748  10.541  0.00  0.00    +0.011 A 
ATOM     12  C25 CHE B   08     18.130  67.207  13.496  0.00  0.00    +0.014 A 
BRANCH   7  14
ATOM     13  O1  CHE B   08     25.168  65.040  12.463  0.00  0.00    -0.270 OA
ATOM     14  C1  CHE B   08     25.062  65.385  12.162  0.00  0.00    +0.244 C 
ATOM     15  N1  CHE B   08     20.654  65.017  14.653  0.00  0.00    -0.308 N 
ATOM     16  H1  CHE B   08     20.573  65.281  14.422  0.00  0.00    +0.149 HD
BRANCH  15  17
ATOM     17  C2  CHE B   08     23.728  63.829  14.388  0.00  0.00    +0.078 C 
ATOM     18  C3  CHE B   08     20.349  66.867  16.498  0.00  0.00    +0.050 C 
ATOM     19  C4  CHE B   08     21.498  66.547  16.528  0.00  0.00    +0.161 C 
ATOM     20  O2  CHE B   08     23.774  65.893  16.569  0.00  0.00    -0.380 OA
ATOM     21  C5  CHE B   08     23.807  65.913  16.600  0.00  0.00    +0.161 C 
ATOM     22  C6  CHE B   08     22.907  65.367  15.740  0.00  0.00    +0.050 C 
ENDBRANCH  15  17
ENDBRANCH   7  14
ENDBRANCH   1  10
BRANCH   3  23
ATOM     23  C14 CHE B   08     17.508  68.148   7.306  0.00  0.00    +0.029 A 
ATOM     24  C15 CHE B   08     22.118  69.925   6.495  0.00  0.00    +0.114 A 
ATOM     25  N2  CHE B   08     22.896  70.123   5.456  0.00  0.00    -0.284 N 
ATOM     26  N3  CHE B   08     22.774  69.990   4.718  0.00  0.00    -0.172 NA
ATOM     27  C16 CHE B   08     17.345  67.970   6.314  0.00  0.00    +0.118 A 
ATOM     28  H15 CHE B   08     21.973  69.766   5.610  0.00  0.00    +0.188 HD
BRANCH  27  29
ATOM     29  C17 CHE B   08     19.070  68.551   5.267  0.00  0.00    +0.091 A 
ATOM     30  C18 CHE B   08     18.923  68.435   4.448  0.00  0.00    +0.030 A 
ATOM     31  C19 CHE B   08     22.492  69.691   3.017  0.00  0.00    +0.004 A 
ATOM     32  C20 CHE B   08     21.622  69.395   3.501  0.00  0.00    +0.020 A 
ATOM     33  C21 CHE B   08     16.259  67.503   5.590  0.00  0.00    +0.111 A 
ATOM     34  N4  CHE B   08     18.193  68.249   5.713  0.00  0.00    -0.253 NA
ENDBRANCH  27  29
ENDBRANCH   3  23
TORSDOF 5
ENDMDL
MODEL 5
REMARK VINA RESULT:     -10.8      2.639      3.206
REMARK  Name = dock_mp/CHEMBL2/CHEMBL202887.pdb
REMARK  5 active torsions:
REMARK  status: ('A' for Active; 'I' for Inactive)
REMARK    1  A    between atoms: C1_2  and  C7_10
REMARK    2  A    between atoms: N1_3  and  C2_4
REMARK    3  A    between atoms: C10_13  and  C11_14
REMARK    4  A    between atoms: C13_16  and  C14_17
REMARK    5  A    between atoms: C16_21  and  C17_22
REMARK                            x       y       z     vdW  Elec       q    Type
REMARK                         _______ _______ _______ _____ _____    ______ ____
ROOT
ATOM      1  C11 CHE B   08     20.516  69.061   6.859  0.00  0.00    +0.072 A 
ATOM      2  C12 CHE B   08     18.691  69.029   2.148  0.00  0.00    +0.037 A 
ATOM      3  C13 CHE B   08     18.786  68.444   8.271  0.00  0.00    -0.011 A 
ATOM      4  C22 CHE B   08     17.330  68.419   4.501  0.00  0.00    +0.028 A 
ATOM      5  C23 CHE B   08     17.347  68.731   1.425  0.00  0.00    +0.112 A 
ATOM      6  N5  CHE B   08     20.639  68.791   9.904  0.00  0.00    -0.255 NA
ENDROOT
BRANCH   1  10
ATOM      7  C7  CHE B   08     23.273  70.391   1.120  0.00  0.00    +0.037 A 
ATOM      8  C8  CHE B   08     22.569  70.186   1.278  0.00  0.00    +0.014 A 
ATOM      9  C9  CHE B   08     23.128  69.509   9.345  0.00  0.00    +0.011 A 
ATOM     10  C10 CHE B   08     21.390  69.526   4.615  0.00  0.00    +0.000 A 
ATOM     11  C24 CHE B   08     22.782  69.618   7.375  0.00  0.00    +0.011 A 
ATOM     12  C25 CHE B   08     22.911  70.180   2.225  0.00  0.00    +0.014 A 
BRANCH   7  14
ATOM     13  O1  CHE B   08     26.846  70.675   8.515  0.00  0.00    -0.270 OA
ATOM     14  C1  CHE B   08     26.431  70.473   8.604  0.00  0.00    +0.244 C 
ATOM     15  N1  CHE B   08     26.012  71.180   3.594  0.00  0.00    -0.308 N 
ATOM     16  H1  CHE B   08     25.694  71.025   3.662  0.00  0.00    +0.149 HD
BRANCH  15  17
ATOM     17  C2  CHE B   08     27.957  71.581   6.238  0.00  0.00    +0.078 C 
ATOM     18  C3  CHE B   08     25.587  73.373   2.204  0.00  0.00    +0.050 C 
ATOM     19  C4  CHE B   08     26.296  73.681   3.111  0.00  0.00    +0.161 C 
ATOM     20  O2  CHE B   08     27.706  74.269   4.922  0.00  0.00    -0.380 OA
ATOM     21  C5  CHE B   08     27.723  74.316   4.929  0.00  0.00    +0.161 C 
ATOM     22  C6  CHE B   08     27.274  73.046   4.737  0.00  0.00    +0.050 C 
ENDBRANCH  15  17
ENDBRANCH   7  14
ENDBRANCH   1  10
BRANCH   3  23
ATOM     23  C14 CHE B   08     17.198  68.380   4.531  0.00  0.00    +0.029 A 
ATOM     24  C15 CHE B   08     18.651  68.122   9.315  0.00  0.00    +0.114 A 
ATOM     25  N2  CHE B   08     18.190  67.595  10.426  0.00  0.00    -0.284 N 
ATOM     26  N3  CHE B   08     17.557  67.195  10.555  0.00  0.00    -0.172 NA
ATOM     27  C16 CHE B   08     16.349  67.842   4.704  0.00  0.00    +0.118 A 
ATOM     28  H15 CHE B   08     17.893  67.643   9.470  0.00  0.00    +0.188 HD
BRANCH  27  29
ATOM     29  C17 CHE B   08     16.311  67.347   6.744  0.00  0.00    +0.091 A 
ATOM     30  C18 CHE B   08     15.629  66.875   6.880  0.00  0.00    +0.030 A 
ATOM     31  C19 CHE B   08     16.104  66.266  10.851  0.00  0.00    +0.004 A 
ATOM     32  C20 CHE B   08     16.091  66.492   9.837  0.00  0.00    +0.020 A 
ATOM     33  C21 CHE B   08     15.330  67.370   3.891  0.00  0.00    +0.111 A 
ATOM     34  N4  CHE B   08     16.265  67.549   5.737  0.00  0.00    -0.253 NA
ENDBRANCH  27  29
ENDBRANCH   3  23
TORSDOF 5
ENDMDL
MODEL 6
REMARK VINA RESULT:     -10.8      2.761      6.207
REMARK  Name = dock_mp/CHEMBL2/CHEMBL202887.pdb
REMARK  5 active torsions:
REMARK  status: ('A' for Active; 'I' for Inactive)
REMARK    1  A    between atoms: C1_2  and  C7_10
REMARK    2  A    between atoms: N1_3  and  C2_4
REMARK    3  A    between atoms: C10_13  and  C11_14
REMARK    4  A    between atoms: C13_16  and  C14_17
REMARK    5  A    between atoms: C16_21  and  C17_22
REMARK                            x       y       z     vdW  Elec       q    Type
REMARK                         _______ _______ _______ _____ _____    ______ ____
ROOT
ATOM      1  C11 CHE B   08     19.914  69.529   6.702  0.00  0.00    +0.072 A 
ATOM      2  C12 CHE B   08     19.954  68.813  11.704  0.00  0.00    +0.037 A 
ATOM      3  C13 CHE B   08     18.041  68.450   5.869  0.00  0.00    -0.011 A 
ATOM      4  C22 CHE B   08     18.076  67.880   9.870  0.00  0.00    +0.028 A 
ATOM      5  C23 CHE B   08     19.091  68.100  12.782  0.00  0.00    +0.112 A 
ATOM      6  N5  CHE B   08     19.024  69.391   3.779  0.00  0.00    -0.255 NA
ENDROOT
BRANCH   1  10
ATOM      7  C7  CHE B   08     24.116  71.294  11.343  0.00  0.00    +0.037 A 
ATOM      8  C8  CHE B   08     23.388  71.120  11.396  0.00  0.00    +0.014 A 
ATOM      9  C9  CHE B   08     21.802  69.526   3.598  0.00  0.00    +0.011 A 
ATOM     10  C10 CHE B   08     21.358  70.178   8.576  0.00  0.00    +0.000 A 
ATOM     11  C24 CHE B   08     21.985  69.874   5.563  0.00  0.00    +0.011 A 
ATOM     12  C25 CHE B   08     23.471  70.988  10.400  0.00  0.00    +0.014 A 
BRANCH   7  14
ATOM     13  O1  CHE B   08     25.684  70.291   3.338  0.00  0.00    -0.270 OA
ATOM     14  C1  CHE B   08     25.217  70.344   3.351  0.00  0.00    +0.244 C 
ATOM     15  N1  CHE B   08     26.278  70.739   8.300  0.00  0.00    -0.308 N 
ATOM     16  H1  CHE B   08     25.921  70.780   8.309  0.00  0.00    +0.149 HD
BRANCH  15  17
ATOM     17  C2  CHE B   08     27.547  70.285   5.280  0.00  0.00    +0.078 C 
ATOM     18  C3  CHE B   08     27.650  72.383   9.829  0.00  0.00    +0.050 C 
ATOM     19  C4  CHE B   08     28.230  72.327   8.788  0.00  0.00    +0.161 C 
ATOM     20  O2  CHE B   08     29.365  72.199   6.712  0.00  0.00    -0.380 OA
ATOM     21  C5  CHE B   08     29.407  72.224   6.703  0.00  0.00    +0.161 C 
ATOM     22  C6  CHE B   08     28.263  71.532   6.953  0.00  0.00    +0.050 C 
ENDBRANCH  15  17
ENDBRANCH   7  14
ENDBRANCH   1  10
BRANCH   3  23
ATOM     23  C14 CHE B   08     17.959  67.803   9.880  0.00  0.00    +0.029 A 
ATOM     24  C15 CHE B   08     17.576  68.195   4.904  0.00  0.00    +0.114 A 
ATOM     25  N2  CHE B   08     16.817  67.687   3.962  0.00  0.00    -0.284 N 
ATOM     26  N3  CHE B   08     16.241  67.193   4.007  0.00  0.00    -0.172 NA
ATOM     27  C16 CHE B   08     17.187  67.140   9.941  0.00  0.00    +0.118 A 
ATOM     28  H15 CHE B   08     16.887  67.604   4.958  0.00  0.00    +0.188 HD
BRANCH  27  29
ATOM     29  C17 CHE B   08     16.470  66.813   7.994  0.00  0.00    +0.091 A 
ATOM     30  C18 CHE B   08     15.772  66.350   8.053  0.00  0.00    +0.030 A 
ATOM     31  C19 CHE B   08     14.904  66.071   4.112  0.00  0.00    +0.004 A 
ATOM     32  C20 CHE B   08     15.229  66.212   5.088  0.00  0.00    +0.020 A 
ATOM     33  C21 CHE B   08     16.481  66.597  11.003  0.00  0.00    +0.111 A 
ATOM     34  N4  CHE B   08     16.762  66.932   8.973  0.00  0.00    -0.253 NA
ENDBRANCH  27  29
ENDBRANCH   3  23
TORSDOF 5
ENDMDL
MODEL 7
REMARK VINA RESULT:     -10.7      2.398      5.960
REMARK  Name = dock_mp/CHEMBL2/CHEMBL202887.pdb
REMARK  5 active torsions:
REMARK  status: ('A' for Active; 'I' for Inactive)
REMARK    1  A    between atoms: C1_2  and  C7_10
REMARK    2  A    between atoms: N1_3  and  C2_4
REMARK    3  A    between atoms: C10_13  and  C11_14
REMARK    4  A    between atoms: C13_16  and  C14_17
REMARK    5  A    between atoms: C16_21  and  C17_22
REMARK                            x       y       z     vdW  Elec       q    Type
REMARK                         _______ _______ _______ _____ _____    ______ ____
ROOT
ATOM      1  C11 CHE B   08     19.278  68.521   5.775  0.00  0.00    +0.072 A 
ATOM      2  C12 CHE B   08     20.530  68.822  10.661  0.00  0.00    +0.037 A 
ATOM      3  C13 CHE B   08     17.032  67.962   5.674  0.00  0.00    -0.011 A 
ATOM      4  C22 CHE B   08     18.037  68.205   9.581  0.00  0.00    +0.028 A 
ATOM      5  C23 CHE B   08     19.848  68.650  12.047  0.00  0.00    +0.112 A 
ATOM      6  N5  CHE B   08     17.601  68.109   3.250  0.00  0.00    -0.255 NA
ENDROOT
BRANCH   1  10
ATOM      7  C7  CHE B   08     24.876  69.979   8.749  0.00  0.00    +0.037 A 
ATOM      8  C8  CHE B   08     24.230  69.729   9.038  0.00  0.00    +0.014 A 
ATOM      9  C9  CHE B   08     19.832  69.163   2.241  0.00  0.00    +0.011 A 
ATOM     10  C10 CHE B   08     21.307  69.023   7.058  0.00  0.00    +0.000 A 
ATOM     11  C24 CHE B   08     20.742  69.231   4.025  0.00  0.00    +0.011 A 
ATOM     12  C25 CHE B   08     23.930  69.755   8.076  0.00  0.00    +0.014 A 
BRANCH   7  14
ATOM     13  O1  CHE B   08     23.288  70.306   0.692  0.00  0.00    -0.270 OA
ATOM     14  C1  CHE B   08     22.862  70.337   0.887  0.00  0.00    +0.244 C 
ATOM     15  N1  CHE B   08     25.719  69.995   5.070  0.00  0.00    -0.308 N 
ATOM     16  H1  CHE B   08     25.392  70.019   5.220  0.00  0.00    +0.149 HD
BRANCH  15  17
ATOM     17  C2  CHE B   08     25.745  70.071   1.765  0.00  0.00    +0.078 C 
ATOM     18  C3  CHE B   08     26.619  67.757   6.122  0.00  0.00    +0.050 C 
ATOM     19  C4  CHE B   08     26.693  67.628   4.939  0.00  0.00    +0.161 C 
ATOM     20  O2  CHE B   08     26.830  67.394   2.585  0.00  0.00    -0.380 OA
ATOM     21  C5  CHE B   08     26.847  67.352   2.563  0.00  0.00    +0.161 C 
ATOM     22  C6  CHE B   08     26.374  68.480   3.157  0.00  0.00    +0.050 C 
ENDBRANCH  15  17
ENDBRANCH   7  14
ENDBRANCH   1  10
BRANCH   3  23
ATOM     23  C14 CHE B   08     17.912  68.174   9.636  0.00  0.00    +0.029 A 
ATOM     24  C15 CHE B   08     16.389  67.489   4.916  0.00  0.00    +0.114 A 
ATOM     25  N2  CHE B   08     15.489  66.760   4.299  0.00  0.00    -0.284 N 
ATOM     26  N3  CHE B   08     14.987  66.261   4.576  0.00  0.00    -0.172 NA
ATOM     27  C16 CHE B   08     17.238  67.504  10.006  0.00  0.00    +0.118 A 
ATOM     28  H15 CHE B   08     15.788  66.892   5.246  0.00  0.00    +0.188 HD
BRANCH  27  29
ATOM     29  C17 CHE B   08     16.137  66.741   8.389  0.00  0.00    +0.091 A 
ATOM     30  C18 CHE B   08     15.534  66.246   8.700  0.00  0.00    +0.030 A 
ATOM     31  C19 CHE B   08     13.821  65.122   5.213  0.00  0.00    +0.004 A 
ATOM     32  C20 CHE B   08     14.343  65.480   6.036  0.00  0.00    +0.020 A 
ATOM     33  C21 CHE B   08     16.869  67.130  11.290  0.00  0.00    +0.111 A 
ATOM     34  N4  CHE B   08     16.630  67.075   9.227  0.00  0.00    -0.253 NA
ENDBRANCH  27  29
ENDBRANCH   3  23
TORSDOF 5
ENDMDL
