MODEL 1
REMARK VINA RESULT:     -10.3      0.000      0.000
REMARK  Name = dock_mp/CHEMBL2/CHEMBL238125.pdb
REMARK  3 active torsions:
REMARK  status: ('A' for Active; 'I' for Inactive)
REMARK    1  A    between atoms: C6_8  and  C7_9
REMARK    2  A    between atoms: C8_11  and  N2_12
REMARK    3  A    between atoms: N2_12  and  C9_13
REMARK                            x       y       z     vdW  Elec       q    Type
REMARK                         _______ _______ _______ _____ _____    ______ ____
ROOT
ATOM      1  C7  CHE B   01     16.026  66.495   7.077  0.00  0.00    +0.167 A 
ATOM      2  N1  CHE B   01     17.269  67.155   7.662  0.00  0.00    -0.210 NA
ATOM      3  C8  CHE B   01     18.516  67.817   8.256  0.00  0.00    +0.155 A 
ATOM      4  C14 CHE B   01     17.716  67.368   8.656  0.00  0.00    +0.148 A 
ATOM      5  N4  CHE B   01     22.072  69.783   7.445  0.00  0.00    -0.247 NA
ATOM      6  C15 CHE B   01     22.052  69.773   7.400  0.00  0.00    +0.131 A 
ATOM      7  C16 CHE B   01     18.444  67.782   8.095  0.00  0.00    +0.133 A 
ATOM      8  N5  CHE B   01     22.671  70.205   4.416  0.00  0.00    -0.233 NA
ATOM      9  C17 CHE B   01     22.707  70.222   4.496  0.00  0.00    +0.184 A 
ATOM     10  N6  CHE B   01     20.692  69.126   4.374  0.00  0.00    -0.206 NA
ENDROOT
BRANCH   1  18
ATOM     11  F1  CHE B   01     21.890  70.493   1.008  0.00  0.00    -0.205 F 
ATOM     12  C1  CHE B   01     15.432  67.783   4.876  0.00  0.00    +0.134 A 
ATOM     13  C2  CHE B   01     17.996  69.589   2.127  0.00  0.00    +0.040 A 
ATOM     14  C3  CHE B   01     18.007  69.581   2.141  0.00  0.00    +0.023 A 
ATOM     15  C4  CHE B   01     15.450  67.772   4.898  0.00  0.00    +0.042 A 
ATOM     16 CL1  CHE B   01     17.068  68.446   3.936  0.00  0.00    -0.084 Cl
ATOM     17  C5  CHE B   01     22.633  69.989   1.920  0.00  0.00    +0.034 A 
ATOM     18  C6  CHE B   01     20.986  69.334   2.846  0.00  0.00    +0.056 A 
ENDBRANCH   1  18
BRANCH   3  19
ATOM     19  N2  CHE B   01     22.909  70.249   7.125  0.00  0.00    -0.298 N 
ATOM     20  H4  CHE B   01     23.779  70.728   6.878  0.00  0.00    +0.154 HD
BRANCH  19  21
ATOM     21  C9  CHE B   01     21.619  69.685   8.797  0.00  0.00    +0.035 A 
ATOM     22  C10 CHE B   01     20.672  69.858   9.179  0.00  0.00    +0.043 A 
ATOM     23  C11 CHE B   01     24.401  69.256   7.561  0.00  0.00    +0.112 A 
ATOM     24  N3  CHE B   01     18.229  68.526  12.726  0.00  0.00    -0.263 NA
ATOM     25  C12 CHE B   01     25.846  68.333   7.926  0.00  0.00    +0.112 A 
ATOM     26  C13 CHE B   01     17.961  68.929  12.323  0.00  0.00    +0.043 A 
ENDBRANCH  19  21
ENDBRANCH   3  19
TORSDOF 3
ENDMDL
MODEL 2
REMARK VINA RESULT:     -10.0      3.001      5.259
REMARK  Name = dock_mp/CHEMBL2/CHEMBL238125.pdb
REMARK  3 active torsions:
REMARK  status: ('A' for Active; 'I' for Inactive)
REMARK    1  A    between atoms: C6_8  and  C7_9
REMARK    2  A    between atoms: C8_11  and  N2_12
REMARK    3  A    between atoms: N2_12  and  C9_13
REMARK                            x       y       z     vdW  Elec       q    Type
REMARK                         _______ _______ _______ _____ _____    ______ ____
ROOT
ATOM      1  C7  CHE B   01     19.875  68.111  13.241  0.00  0.00    +0.167 A 
ATOM      2  N1  CHE B   01     20.730  68.812  12.193  0.00  0.00    -0.210 NA
ATOM      3  C8  CHE B   01     21.594  69.519  11.143  0.00  0.00    +0.155 A 
ATOM      4  C14 CHE B   01     21.683  69.378  12.131  0.00  0.00    +0.148 A 
ATOM      5  N4  CHE B   01     21.992  70.529   7.145  0.00  0.00    -0.247 NA
ATOM      6  C15 CHE B   01     21.949  70.503   7.148  0.00  0.00    +0.131 A 
ATOM      7  C16 CHE B   01     21.439  69.427  11.153  0.00  0.00    +0.133 A 
ATOM      8  N5  CHE B   01     19.676  69.540   5.309  0.00  0.00    -0.233 NA
ATOM      9  C17 CHE B   01     19.754  69.585   5.304  0.00  0.00    +0.184 A 
ATOM     10  N6  CHE B   01     19.048  68.779   7.336  0.00  0.00    -0.206 NA
ENDROOT
BRANCH   1  18
ATOM     11  F1  CHE B   01     16.458  68.549   4.562  0.00  0.00    -0.205 F 
ATOM     12  C1  CHE B   01     17.435  68.704  12.501  0.00  0.00    +0.134 A 
ATOM     13  C2  CHE B   01     15.845  68.918   8.651  0.00  0.00    +0.040 A 
ATOM     14  C3  CHE B   01     15.864  68.913   8.649  0.00  0.00    +0.023 A 
ATOM     15  C4  CHE B   01     17.464  68.697  12.498  0.00  0.00    +0.042 A 
ATOM     16 CL1  CHE B   01     17.227  68.656  10.512  0.00  0.00    -0.084 Cl
ATOM     17  C5  CHE B   01     17.688  68.224   4.428  0.00  0.00    +0.034 A 
ATOM     18  C6  CHE B   01     17.877  68.277   6.419  0.00  0.00    +0.056 A 
ENDBRANCH   1  18
BRANCH   3  19
ATOM     19  N2  CHE B   01     21.980  70.715   6.153  0.00  0.00    -0.298 N 
ATOM     20  H4  CHE B   01     22.043  70.971   5.163  0.00  0.00    +0.154 HD
BRANCH  19  21
ATOM     21  C9  CHE B   01     22.652  69.269   7.647  0.00  0.00    +0.035 A 
ATOM     22  C10 CHE B   01     22.483  68.987   8.629  0.00  0.00    +0.043 A 
ATOM     23  C11 CHE B   01     23.057  70.202   4.746  0.00  0.00    +0.112 A 
ATOM     24  N3  CHE B   01     24.054  65.896  11.511  0.00  0.00    -0.263 NA
ATOM     25  C12 CHE B   01     24.056  69.757   3.376  0.00  0.00    +0.112 A 
ATOM     26  C13 CHE B   01     23.607  66.287  11.719  0.00  0.00    +0.043 A 
ENDBRANCH  19  21
ENDBRANCH   3  19
TORSDOF 3
ENDMDL
MODEL 3
REMARK VINA RESULT:     -10.0      2.826      4.860
REMARK  Name = dock_mp/CHEMBL2/CHEMBL238125.pdb
REMARK  3 active torsions:
REMARK  status: ('A' for Active; 'I' for Inactive)
REMARK    1  A    between atoms: C6_8  and  C7_9
REMARK    2  A    between atoms: C8_11  and  N2_12
REMARK    3  A    between atoms: N2_12  and  C9_13
REMARK                            x       y       z     vdW  Elec       q    Type
REMARK                         _______ _______ _______ _____ _____    ______ ____
ROOT
ATOM      1  C7  CHE B   01     18.165  67.728  11.070  0.00  0.00    +0.167 A 
ATOM      2  N1  CHE B   01     19.151  68.087   9.964  0.00  0.00    -0.210 NA
ATOM      3  C8  CHE B   01     20.146  68.449   8.858  0.00  0.00    +0.155 A 
ATOM      4  C14 CHE B   01     20.229  68.325   9.848  0.00  0.00    +0.148 A 
ATOM      5  N4  CHE B   01     20.671  69.132   4.805  0.00  0.00    -0.247 NA
ATOM      6  C15 CHE B   01     20.622  69.121   4.810  0.00  0.00    +0.131 A 
ATOM      7  C16 CHE B   01     19.971  68.410   8.877  0.00  0.00    +0.133 A 
ATOM      8  N5  CHE B   01     18.087  68.846   3.086  0.00  0.00    -0.233 NA
ATOM      9  C17 CHE B   01     18.175  68.865   3.076  0.00  0.00    +0.184 A 
ATOM     10  N6  CHE B   01     17.340  68.397   5.164  0.00  0.00    -0.206 NA
ENDROOT
BRANCH   1  18
ATOM     11  F1  CHE B   01     14.748  67.832   2.379  0.00  0.00    -0.205 F 
ATOM     12  C1  CHE B   01     16.144  66.361  10.118  0.00  0.00    +0.134 A 
ATOM     13  C2  CHE B   01     14.570  66.360   6.257  0.00  0.00    +0.040 A 
ATOM     14  C3  CHE B   01     14.585  66.373   6.256  0.00  0.00    +0.023 A 
ATOM     15  C4  CHE B   01     16.167  66.380  10.118  0.00  0.00    +0.042 A 
ATOM     16 CL1  CHE B   01     15.824  66.753   8.183  0.00  0.00    -0.084 Cl
ATOM     17  C5  CHE B   01     15.729  68.656   2.371  0.00  0.00    +0.034 A 
ATOM     18  C6  CHE B   01     16.033  68.251   4.306  0.00  0.00    +0.056 A 
ENDBRANCH   1  18
BRANCH   3  19
ATOM     19  N2  CHE B   01     20.676  69.275   3.806  0.00  0.00    -0.298 N 
ATOM     20  H4  CHE B   01     20.765  69.423   2.796  0.00  0.00    +0.154 HD
BRANCH  19  21
ATOM     21  C9  CHE B   01     21.428  69.912   5.756  0.00  0.00    +0.035 A 
ATOM     22  C10 CHE B   01     21.119  70.043   6.736  0.00  0.00    +0.043 A 
ATOM     23  C11 CHE B   01     22.218  69.484   2.816  0.00  0.00    +0.112 A 
ATOM     24  N3  CHE B   01     22.932  71.403  10.633  0.00  0.00    -0.263 NA
ATOM     25  C12 CHE B   01     23.655  69.664   1.827  0.00  0.00    +0.112 A 
ATOM     26  C13 CHE B   01     22.324  71.236  10.638  0.00  0.00    +0.043 A 
ENDBRANCH  19  21
ENDBRANCH   3  19
TORSDOF 3
ENDMDL
MODEL 4
REMARK VINA RESULT:      -9.9      1.924      2.172
REMARK  Name = dock_mp/CHEMBL2/CHEMBL238125.pdb
REMARK  3 active torsions:
REMARK  status: ('A' for Active; 'I' for Inactive)
REMARK    1  A    between atoms: C6_8  and  C7_9
REMARK    2  A    between atoms: C8_11  and  N2_12
REMARK    3  A    between atoms: N2_12  and  C9_13
REMARK                            x       y       z     vdW  Elec       q    Type
REMARK                         _______ _______ _______ _____ _____    ______ ____
ROOT
ATOM      1  C7  CHE B   01     15.686  66.244   9.477  0.00  0.00    +0.167 A 
ATOM      2  N1  CHE B   01     16.841  67.135   9.917  0.00  0.00    -0.210 NA
ATOM      3  C8  CHE B   01     18.000  68.031  10.365  0.00  0.00    +0.155 A 
ATOM      4  C14 CHE B   01     17.249  67.579  10.849  0.00  0.00    +0.148 A 
ATOM      5  N4  CHE B   01     21.327  70.191   9.168  0.00  0.00    -0.247 NA
ATOM      6  C15 CHE B   01     21.309  70.171   9.126  0.00  0.00    +0.131 A 
ATOM      7  C16 CHE B   01     17.934  67.959  10.214  0.00  0.00    +0.133 A 
ATOM      8  N5  CHE B   01     21.915  70.099   6.109  0.00  0.00    -0.233 NA
ATOM      9  C17 CHE B   01     21.948  70.135   6.184  0.00  0.00    +0.184 A 
ATOM     10  N6  CHE B   01     20.067  68.820   6.287  0.00  0.00    -0.206 NA
ENDROOT
BRANCH   1  18
ATOM     11  F1  CHE B   01     21.200  69.457   2.659  0.00  0.00    -0.205 F 
ATOM     12  C1  CHE B   01     15.110  66.522   6.938  0.00  0.00    +0.134 A 
ATOM     13  C2  CHE B   01     17.520  67.947   3.847  0.00  0.00    +0.040 A 
ATOM     14  C3  CHE B   01     17.531  67.948   3.863  0.00  0.00    +0.023 A 
ATOM     15  C4  CHE B   01     15.127  66.523   6.963  0.00  0.00    +0.042 A 
ATOM     16 CL1  CHE B   01     16.653  67.257   5.899  0.00  0.00    -0.084 Cl
ATOM     17  C5  CHE B   01     21.910  69.504   3.723  0.00  0.00    +0.034 A 
ATOM     18  C6  CHE B   01     20.356  68.768   4.745  0.00  0.00    +0.056 A 
ENDBRANCH   1  18
BRANCH   3  19
ATOM     19  N2  CHE B   01     22.111  70.679   8.760  0.00  0.00    -0.298 N 
ATOM     20  H4  CHE B   01     22.918  71.211   8.421  0.00  0.00    +0.154 HD
BRANCH  19  21
ATOM     21  C9  CHE B   01     21.361  69.485  10.428  0.00  0.00    +0.035 A 
ATOM     22  C10 CHE B   01     20.475  69.219  10.897  0.00  0.00    +0.043 A 
ATOM     23  C11 CHE B   01     23.915  70.346   8.952  0.00  0.00    +0.112 A 
ATOM     24  N3  CHE B   01     19.204  66.681  14.399  0.00  0.00    -0.263 NA
ATOM     25  C12 CHE B   01     25.640  70.065   9.087  0.00  0.00    +0.112 A 
ATOM     26  C13 CHE B   01     18.752  66.976  14.074  0.00  0.00    +0.043 A 
ENDBRANCH  19  21
ENDBRANCH   3  19
TORSDOF 3
ENDMDL
MODEL 5
REMARK VINA RESULT:      -9.8      2.950      6.017
REMARK  Name = dock_mp/CHEMBL2/CHEMBL238125.pdb
REMARK  3 active torsions:
REMARK  status: ('A' for Active; 'I' for Inactive)
REMARK    1  A    between atoms: C6_8  and  C7_9
REMARK    2  A    between atoms: C8_11  and  N2_12
REMARK    3  A    between atoms: N2_12  and  C9_13
REMARK                            x       y       z     vdW  Elec       q    Type
REMARK                         _______ _______ _______ _____ _____    ______ ____
ROOT
ATOM      1  C7  CHE B   01     16.011  65.876   9.596  0.00  0.00    +0.167 A 
ATOM      2  N1  CHE B   01     16.376  66.587   8.298  0.00  0.00    -0.210 NA
ATOM      3  C8  CHE B   01     16.736  67.300   6.991  0.00  0.00    +0.155 A 
ATOM      4  C14 CHE B   01     15.921  66.815   7.311  0.00  0.00    +0.148 A 
ATOM      5  N4  CHE B   01     19.637  69.421   4.929  0.00  0.00    -0.247 NA
ATOM      6  C15 CHE B   01     19.657  69.411   4.974  0.00  0.00    +0.131 A 
ATOM      7  C16 CHE B   01     16.810  67.263   7.151  0.00  0.00    +0.133 A 
ATOM      8  N5  CHE B   01     22.288  69.879   6.502  0.00  0.00    -0.233 NA
ATOM      9  C17 CHE B   01     22.251  69.898   6.422  0.00  0.00    +0.184 A 
ATOM     10  N6  CHE B   01     21.043  68.716   7.977  0.00  0.00    -0.206 NA
ENDROOT
BRANCH   1  18
ATOM     11  F1  CHE B   01     24.266  70.233   9.319  0.00  0.00    -0.205 F 
ATOM     12  C1  CHE B   01     17.106  67.368  11.448  0.00  0.00    +0.134 A 
ATOM     13  C2  CHE B   01     20.780  69.339  11.389  0.00  0.00    +0.040 A 
ATOM     14  C3  CHE B   01     20.779  69.330  11.372  0.00  0.00    +0.023 A 
ATOM     15  C4  CHE B   01     17.103  67.354  11.421  0.00  0.00    +0.042 A 
ATOM     16 CL1  CHE B   01     18.893  68.067  10.883  0.00  0.00    -0.084 Cl
ATOM     17  C5  CHE B   01     24.160  69.631   8.194  0.00  0.00    +0.034 A 
ATOM     18  C6  CHE B   01     22.374  68.942   8.777  0.00  0.00    +0.056 A 
ENDBRANCH   1  18
BRANCH   3  19
ATOM     19  N2  CHE B   01     20.415  69.925   4.529  0.00  0.00    -0.298 N 
ATOM     20  H4  CHE B   01     21.154  70.456   4.060  0.00  0.00    +0.154 HD
BRANCH  19  21
ATOM     21  C9  CHE B   01     18.761  68.535   4.202  0.00  0.00    +0.035 A 
ATOM     22  C10 CHE B   01     17.894  68.192   4.653  0.00  0.00    +0.043 A 
ATOM     23  C11 CHE B   01     21.354  69.633   2.969  0.00  0.00    +0.112 A 
ATOM     24  N3  CHE B   01     14.605  65.253   3.721  0.00  0.00    -0.263 NA
ATOM     25  C12 CHE B   01     22.287  69.395   1.504  0.00  0.00    +0.112 A 
ATOM     26  C13 CHE B   01     14.569  65.566   4.267  0.00  0.00    +0.043 A 
ENDBRANCH  19  21
ENDBRANCH   3  19
TORSDOF 3
ENDMDL
MODEL 6
REMARK VINA RESULT:      -9.7      3.423      6.548
REMARK  Name = dock_mp/CHEMBL2/CHEMBL238125.pdb
REMARK  3 active torsions:
REMARK  status: ('A' for Active; 'I' for Inactive)
REMARK    1  A    between atoms: C6_8  and  C7_9
REMARK    2  A    between atoms: C8_11  and  N2_12
REMARK    3  A    between atoms: N2_12  and  C9_13
REMARK                            x       y       z     vdW  Elec       q    Type
REMARK                         _______ _______ _______ _____ _____    ______ ____
ROOT
ATOM      1  C7  CHE B   01     17.811  68.581   3.610  0.00  0.00    +0.167 A 
ATOM      2  N1  CHE B   01     18.860  69.205   4.523  0.00  0.00    -0.210 NA
ATOM      3  C8  CHE B   01     19.916  69.836   5.435  0.00  0.00    +0.155 A 
ATOM      4  C14 CHE B   01     19.749  69.865   4.449  0.00  0.00    +0.148 A 
ATOM      5  N4  CHE B   01     21.288  70.242   9.324  0.00  0.00    -0.247 NA
ATOM      6  C15 CHE B   01     21.248  70.213   9.327  0.00  0.00    +0.131 A 
ATOM      7  C16 CHE B   01     19.772  69.729   5.448  0.00  0.00    +0.133 A 
ATOM      8  N5  CHE B   01     19.625  68.705  11.465  0.00  0.00    -0.233 NA
ATOM      9  C17 CHE B   01     19.697  68.759  11.459  0.00  0.00    +0.184 A 
ATOM     10  N6  CHE B   01     18.538  68.205   9.554  0.00  0.00    -0.206 NA
ENDROOT
BRANCH   1  18
ATOM     11  F1  CHE B   01     16.817  66.864  12.735  0.00  0.00    -0.205 F 
ATOM     12  C1  CHE B   01     15.650  67.821   4.878  0.00  0.00    +0.134 A 
ATOM     13  C2  CHE B   01     15.138  67.038   8.942  0.00  0.00    +0.040 A 
ATOM     14  C3  CHE B   01     15.157  67.044   8.940  0.00  0.00    +0.023 A 
ATOM     15  C4  CHE B   01     15.679  67.829   4.875  0.00  0.00    +0.042 A 
ATOM     16 CL1  CHE B   01     15.978  67.592   6.838  0.00  0.00    -0.084 Cl
ATOM     17  C5  CHE B   01     18.041  67.204  12.583  0.00  0.00    +0.034 A 
ATOM     18  C6  CHE B   01     17.695  67.428  10.626  0.00  0.00    +0.056 A 
ENDBRANCH   1  18
BRANCH   3  19
ATOM     19  N2  CHE B   01     21.527  70.267  10.305  0.00  0.00    -0.298 N 
ATOM     20  H4  CHE B   01     21.825  70.352  11.280  0.00  0.00    +0.154 HD
BRANCH  19  21
ATOM     21  C9  CHE B   01     22.245  70.144   8.245  0.00  0.00    +0.035 A 
ATOM     22  C10 CHE B   01     21.907  69.965   7.282  0.00  0.00    +0.043 A 
ATOM     23  C11 CHE B   01     23.121  70.657  11.146  0.00  0.00    +0.112 A 
ATOM     24  N3  CHE B   01     23.658  69.772   3.132  0.00  0.00    -0.263 NA
ATOM     25  C12 CHE B   01     24.608  71.029  11.998  0.00  0.00    +0.112 A 
ATOM     26  C13 CHE B   01     23.039  69.668   3.191  0.00  0.00    +0.043 A 
ENDBRANCH  19  21
ENDBRANCH   3  19
TORSDOF 3
ENDMDL
MODEL 7
REMARK VINA RESULT:      -9.7      3.495      6.431
REMARK  Name = dock_mp/CHEMBL2/CHEMBL238125.pdb
REMARK  3 active torsions:
REMARK  status: ('A' for Active; 'I' for Inactive)
REMARK    1  A    between atoms: C6_8  and  C7_9
REMARK    2  A    between atoms: C8_11  and  N2_12
REMARK    3  A    between atoms: N2_12  and  C9_13
REMARK                            x       y       z     vdW  Elec       q    Type
REMARK                         _______ _______ _______ _____ _____    ______ ____
ROOT
ATOM      1  C7  CHE B   01     15.729  66.125   6.691  0.00  0.00    +0.167 A 
ATOM      2  N1  CHE B   01     16.898  67.044   6.354  0.00  0.00    -0.210 NA
ATOM      3  C8  CHE B   01     18.071  67.966   6.009  0.00  0.00    +0.155 A 
ATOM      4  C14 CHE B   01     17.331  67.559   5.471  0.00  0.00    +0.148 A 
ATOM      5  N4  CHE B   01     21.374  70.004   7.459  0.00  0.00    -0.247 NA
ATOM      6  C15 CHE B   01     21.354  69.981   7.498  0.00  0.00    +0.131 A 
ATOM      7  C16 CHE B   01     18.000  67.883   6.152  0.00  0.00    +0.133 A 
ATOM      8  N5  CHE B   01     21.884  69.663  10.514  0.00  0.00    -0.233 NA
ATOM      9  C17 CHE B   01     21.919  69.705  10.442  0.00  0.00    +0.184 A 
ATOM     10  N6  CHE B   01     20.037  68.412  10.187  0.00  0.00    -0.206 NA
ENDROOT
BRANCH   1  18
ATOM     11  F1  CHE B   01     21.021  69.113  13.782  0.00  0.00    -0.205 F 
ATOM     12  C1  CHE B   01     14.939  67.129   8.977  0.00  0.00    +0.134 A 
ATOM     13  C2  CHE B   01     17.244  68.480  12.180  0.00  0.00    +0.040 A 
ATOM     14  C3  CHE B   01     17.257  68.474  12.166  0.00  0.00    +0.023 A 
ATOM     15  C4  CHE B   01     14.959  67.120   8.956  0.00  0.00    +0.042 A 
ATOM     16 CL1  CHE B   01     16.484  67.613  10.152  0.00  0.00    -0.084 Cl
ATOM     17  C5  CHE B   01     21.844  68.712  12.887  0.00  0.00    +0.034 A 
ATOM     18  C6  CHE B   01     20.286  68.234  11.726  0.00  0.00    +0.056 A 
ENDBRANCH   1  18
BRANCH   3  19
ATOM     19  N2  CHE B   01     22.149  70.454   7.925  0.00  0.00    -0.298 N 
ATOM     20  H4  CHE B   01     22.954  70.942   8.327  0.00  0.00    +0.154 HD
BRANCH  19  21
ATOM     21  C9  CHE B   01     21.133  69.974   6.050  0.00  0.00    +0.035 A 
ATOM     22  C10 CHE B   01     20.214  70.073   5.582  0.00  0.00    +0.043 A 
ATOM     23  C11 CHE B   01     23.808  69.742   7.547  0.00  0.00    +0.112 A 
ATOM     24  N3  CHE B   01     18.369  68.960   1.622  0.00  0.00    -0.263 NA
ATOM     25  C12 CHE B   01     25.404  69.084   7.242  0.00  0.00    +0.112 A 
ATOM     26  C13 CHE B   01     18.004  69.261   2.039  0.00  0.00    +0.043 A 
ENDBRANCH  19  21
ENDBRANCH   3  19
TORSDOF 3
ENDMDL
MODEL 8
REMARK VINA RESULT:      -9.6      2.607      6.267
REMARK  Name = dock_mp/CHEMBL2/CHEMBL238125.pdb
REMARK  3 active torsions:
REMARK  status: ('A' for Active; 'I' for Inactive)
REMARK    1  A    between atoms: C6_8  and  C7_9
REMARK    2  A    between atoms: C8_11  and  N2_12
REMARK    3  A    between atoms: N2_12  and  C9_13
REMARK                            x       y       z     vdW  Elec       q    Type
REMARK                         _______ _______ _______ _____ _____    ______ ____
ROOT
ATOM      1  C7  CHE B   01     23.581  69.599   3.077  0.00  0.00    +0.167 A 
ATOM      2  N1  CHE B   01     22.838  69.871   4.379  0.00  0.00    -0.210 NA
ATOM      3  C8  CHE B   01     22.096  70.147   5.690  0.00  0.00    +0.155 A 
ATOM      4  C14 CHE B   01     23.014  70.368   5.356  0.00  0.00    +0.148 A 
ATOM      5  N4  CHE B   01     18.565  69.660   7.802  0.00  0.00    -0.247 NA
ATOM      6  C15 CHE B   01     18.557  69.637   7.758  0.00  0.00    +0.131 A 
ATOM      7  C16 CHE B   01     22.068  70.067   5.532  0.00  0.00    +0.133 A 
ATOM      8  N5  CHE B   01     16.335  68.104   6.280  0.00  0.00    -0.233 NA
ATOM      9  C17 CHE B   01     16.349  68.144   6.359  0.00  0.00    +0.184 A 
ATOM     10  N6  CHE B   01     18.021  68.124   4.784  0.00  0.00    -0.206 NA
ENDROOT
BRANCH   1  18
ATOM     11  F1  CHE B   01     14.630  66.977   3.524  0.00  0.00    -0.205 F 
ATOM     12  C1  CHE B   01     21.698  69.994   1.301  0.00  0.00    +0.134 A 
ATOM     13  C2  CHE B   01     17.689  68.853   1.437  0.00  0.00    +0.040 A 
ATOM     14  C3  CHE B   01     17.697  68.846   1.454  0.00  0.00    +0.023 A 
ATOM     15  C4  CHE B   01     21.710  69.985   1.326  0.00  0.00    +0.042 A 
ATOM     16 CL1  CHE B   01     19.946  69.228   1.889  0.00  0.00    -0.084 Cl
ATOM     17  C5  CHE B   01     15.160  66.567   4.614  0.00  0.00    +0.034 A 
ATOM     18  C6  CHE B   01     16.904  67.339   4.010  0.00  0.00    +0.056 A 
ENDBRANCH   1  18
BRANCH   3  19
ATOM     19  N2  CHE B   01     17.662  69.480   8.216  0.00  0.00    -0.298 N 
ATOM     20  H4  CHE B   01     16.769  69.358   8.701  0.00  0.00    +0.154 HD
BRANCH  19  21
ATOM     21  C9  CHE B   01     19.803  69.061   8.331  0.00  0.00    +0.035 A 
ATOM     22  C10 CHE B   01     20.696  69.284   7.854  0.00  0.00    +0.043 A 
ATOM     23  C11 CHE B   01     17.092  68.477   9.655  0.00  0.00    +0.112 A 
ATOM     24  N3  CHE B   01     25.059  68.251   8.324  0.00  0.00    -0.263 NA
ATOM     25  C12 CHE B   01     16.494  67.541  11.012  0.00  0.00    +0.112 A 
ATOM     26  C13 CHE B   01     24.900  68.634   7.850  0.00  0.00    +0.043 A 
ENDBRANCH  19  21
ENDBRANCH   3  19
TORSDOF 3
ENDMDL
MODEL 9
REMARK VINA RESULT:      -9.4      3.202      6.139
REMARK  Name = dock_mp/CHEMBL2/CHEMBL238125.pdb
REMARK  3 active torsions:
REMARK  status: ('A' for Active; 'I' for Inactive)
REMARK    1  A    between atoms: C6_8  and  C7_9
REMARK    2  A    between atoms: C8_11  and  N2_12
REMARK    3  A    between atoms: N2_12  and  C9_13
REMARK                            x       y       z     vdW  Elec       q    Type
REMARK                         _______ _______ _______ _____ _____    ______ ____
ROOT
ATOM      1  C7  CHE B   01     15.314  67.416   7.154  0.00  0.00    +0.167 A 
ATOM      2  N1  CHE B   01     16.532  67.757   6.303  0.00  0.00    -0.210 NA
ATOM      3  C8  CHE B   01     17.752  68.098   5.443  0.00  0.00    +0.155 A 
ATOM      4  C14 CHE B   01     16.850  67.712   5.241  0.00  0.00    +0.148 A 
ATOM      5  N4  CHE B   01     21.611  69.605   5.408  0.00  0.00    -0.247 NA
ATOM      6  C15 CHE B   01     21.597  69.607   5.456  0.00  0.00    +0.131 A 
ATOM      7  C16 CHE B   01     17.700  68.105   5.615  0.00  0.00    +0.133 A 
ATOM      8  N5  CHE B   01     22.700  70.477   8.195  0.00  0.00    -0.233 NA
ATOM      9  C17 CHE B   01     22.726  70.473   8.109  0.00  0.00    +0.184 A 
ATOM     10  N6  CHE B   01     20.627  69.744   8.691  0.00  0.00    -0.206 NA
ENDROOT
BRANCH   1  18
ATOM     11  F1  CHE B   01     22.752  70.672  11.767  0.00  0.00    -0.205 F 
ATOM     12  C1  CHE B   01     15.930  67.056   9.674  0.00  0.00    +0.134 A 
ATOM     13  C2  CHE B   01     19.228  68.478  11.792  0.00  0.00    +0.040 A 
ATOM     14  C3  CHE B   01     19.230  68.485  11.774  0.00  0.00    +0.023 A 
ATOM     15  C4  CHE B   01     15.933  67.066   9.646  0.00  0.00    +0.042 A 
ATOM     16 CL1  CHE B   01     17.639  67.972  10.162  0.00  0.00    -0.084 Cl
ATOM     17  C5  CHE B   01     22.878  71.103  10.568  0.00  0.00    +0.034 A 
ATOM     18  C6  CHE B   01     21.167  70.180  10.099  0.00  0.00    +0.056 A 
ENDBRANCH   1  18
BRANCH   3  19
ATOM     19  N2  CHE B   01     22.539  69.987   5.524  0.00  0.00    -0.298 N 
ATOM     20  H4  CHE B   01     23.492  70.358   5.563  0.00  0.00    +0.154 HD
BRANCH  19  21
ATOM     21  C9  CHE B   01     20.837  69.631   4.201  0.00  0.00    +0.035 A 
ATOM     22  C10 CHE B   01     19.801  69.658   4.193  0.00  0.00    +0.043 A 
ATOM     23  C11 CHE B   01     23.907  69.591   4.352  0.00  0.00    +0.112 A 
ATOM     24  N3  CHE B   01     16.481  68.854   1.252  0.00  0.00    -0.263 NA
ATOM     25  C12 CHE B   01     25.246  69.226   3.281  0.00  0.00    +0.112 A 
ATOM     26  C13 CHE B   01     16.317  69.036   1.832  0.00  0.00    +0.043 A 
ENDBRANCH  19  21
ENDBRANCH   3  19
TORSDOF 3
ENDMDL
