MODEL 1
REMARK VINA RESULT:     -12.6      0.000      0.000
REMARK  Name = dock_mp/CHEMBL2/CHEMBL260015.pdb
REMARK  6 active torsions:
REMARK  status: ('A' for Active; 'I' for Inactive)
REMARK    1  A    between atoms: C4_4  and  C5_5
REMARK    2  A    between atoms: C10_11  and  O1_12
REMARK    3  A    between atoms: O1_12  and  C11_13
REMARK    4  A    between atoms: C11_13  and  C12_14
REMARK    5  A    between atoms: C12_14  and  N2_15
REMARK    6  A    between atoms: C20_24  and  C21_25
REMARK                            x       y       z     vdW  Elec       q    Type
REMARK                         _______ _______ _______ _____ _____    ______ ____
ROOT
ATOM      1  C5  CHE B   00     22.166  70.440   6.678  0.00  0.00    -0.003 A 
ATOM      2  C6  CHE B   00     16.293  66.724   7.518  0.00  0.00    +0.029 A 
ATOM      3  C7  CHE B   00     18.132  67.810   8.404  0.00  0.00    +0.112 A 
ATOM      4  N1  CHE B   00     21.653  69.958   9.076  0.00  0.00    -0.255 NA
ATOM      5  C8  CHE B   00     15.805  66.245  10.084  0.00  0.00    +0.075 A 
ATOM      6  C9  CHE B   00     20.166  68.924  10.645  0.00  0.00    +0.074 A 
ATOM      7  C10 CHE B   00     21.029  69.459  10.692  0.00  0.00    +0.122 A 
ATOM      8  C17 CHE B   00     21.700  69.965   9.402  0.00  0.00    +0.046 A 
ATOM      9  C18 CHE B   00     16.502  66.755   8.973  0.00  0.00    +0.014 A 
ATOM     10  C19 CHE B   00     15.644  66.221   8.966  0.00  0.00    +0.008 A 
ENDROOT
BRANCH   1  14
ATOM     11  C1  CHE B   00     14.293  65.607   5.485  0.00  0.00    +0.029 C 
ATOM     12  C2  CHE B   00     20.298  69.342   5.565  0.00  0.00    +0.057 C 
ATOM     13  C3  CHE B   00     14.395  65.628   6.217  0.00  0.00    +0.048 A 
ATOM     14  C4  CHE B   00     16.140  66.701   6.450  0.00  0.00    +0.033 A 
ATOM     15  C20 CHE B   00     17.706  67.738   5.395  0.00  0.00    +0.119 A 
ATOM     16  N4  CHE B   00     19.254  68.771   4.211  0.00  0.00    -0.169 NA
ATOM     17  N5  CHE B   00     15.925  66.657   4.905  0.00  0.00    -0.267 N 
ATOM     18  C26 CHE B   00     18.360  68.230   3.937  0.00  0.00    +0.144 C 
BRANCH  15  19
ATOM     19  C21 CHE B   00     18.552  68.269   5.323  0.00  0.00    +0.091 A 
ATOM     20  C22 CHE B   00     17.615  67.879   5.566  0.00  0.00    +0.030 A 
ATOM     21  C23 CHE B   00     14.347  65.571   5.633  0.00  0.00    +0.004 A 
ATOM     22  C24 CHE B   00     16.142  66.475   5.296  0.00  0.00    +0.020 A 
ATOM     23  C25 CHE B   00     14.609  65.166   5.140  0.00  0.00    +0.111 A 
ATOM     24  N3  CHE B   00     21.990  70.311   4.935  0.00  0.00    -0.253 NA
ENDBRANCH  15  19
ENDBRANCH   1  14
BRANCH   7  25
ATOM     25  O1  CHE B   00     19.519  68.422  12.102  0.00  0.00    -0.494 OA
BRANCH  25  26
ATOM     26  C11 CHE B   00     17.975  67.250  13.494  0.00  0.00    +0.210 C 
BRANCH  26  27
ATOM     27  C12 CHE B   00     20.762  68.453  13.799  0.00  0.00    -0.037 C 
BRANCH  27  28
ATOM     28  N2  CHE B   00     20.428  67.110  14.793  0.00  0.00    +0.385 N 
ATOM     29  C13 CHE B   00     20.707  66.319  15.026  0.00  0.00    -0.050 C 
ATOM     30  C14 CHE B   00     19.329  65.649  16.420  0.00  0.00    +0.141 C 
ATOM     31  O2  CHE B   00     24.252  65.424  12.896  0.00  0.00    -0.383 OA
ATOM     32  C15 CHE B   00     22.550  65.672  14.020  0.00  0.00    +0.141 C 
ATOM     33  C16 CHE B   00     23.627  67.196  12.374  0.00  0.00    -0.050 C 
ATOM     34  H12 CHE B   00     19.656  67.011  15.420  0.00  0.00    -0.081 HD
ENDBRANCH  27  28
ENDBRANCH  26  27
ENDBRANCH  25  26
ENDBRANCH   7  25
TORSDOF 6
ENDMDL
MODEL 2
REMARK VINA RESULT:     -12.6      2.521      5.520
REMARK  Name = dock_mp/CHEMBL2/CHEMBL260015.pdb
REMARK  6 active torsions:
REMARK  status: ('A' for Active; 'I' for Inactive)
REMARK    1  A    between atoms: C4_4  and  C5_5
REMARK    2  A    between atoms: C10_11  and  O1_12
REMARK    3  A    between atoms: O1_12  and  C11_13
REMARK    4  A    between atoms: C11_13  and  C12_14
REMARK    5  A    between atoms: C12_14  and  N2_15
REMARK    6  A    between atoms: C20_24  and  C21_25
REMARK                            x       y       z     vdW  Elec       q    Type
REMARK                         _______ _______ _______ _____ _____    ______ ____
ROOT
ATOM      1  C5  CHE B   00     15.796  66.799  10.229  0.00  0.00    -0.003 A 
ATOM      2  C6  CHE B   00     19.119  68.950   4.455  0.00  0.00    +0.029 A 
ATOM      3  C7  CHE B   00     19.067  68.620   6.743  0.00  0.00    +0.112 A 
ATOM      4  N1  CHE B   00     18.086  67.683  10.696  0.00  0.00    -0.255 NA
ATOM      5  C8  CHE B   00     21.543  69.877   5.018  0.00  0.00    +0.075 A 
ATOM      6  C9  CHE B   00     20.094  68.634   9.800  0.00  0.00    +0.074 A 
ATOM      7  C10 CHE B   00     19.753  68.369  10.720  0.00  0.00    +0.122 A 
ATOM      8  C17 CHE B   00     18.346  67.766  10.881  0.00  0.00    +0.046 A 
ATOM      9  C18 CHE B   00     20.279  69.318   5.281  0.00  0.00    +0.014 A 
ATOM     10  C19 CHE B   00     20.652  69.594   4.384  0.00  0.00    +0.008 A 
ENDROOT
BRANCH   1  14
ATOM     11  C1  CHE B   00     18.255  68.995   1.517  0.00  0.00    +0.029 C 
ATOM     12  C2  CHE B   00     15.664  67.078   7.813  0.00  0.00    +0.057 C 
ATOM     13  C3  CHE B   00     18.840  69.175   1.932  0.00  0.00    +0.048 A 
ATOM     14  C4  CHE B   00     18.268  68.679   3.849  0.00  0.00    +0.033 A 
ATOM     15  C20 CHE B   00     16.666  67.866   5.038  0.00  0.00    +0.119 A 
ATOM     16  N4  CHE B   00     14.961  67.021   6.154  0.00  0.00    -0.169 NA
ATOM     17  N5  CHE B   00     17.033  68.299   2.975  0.00  0.00    -0.267 N 
ATOM     18  C26 CHE B   00     15.121  67.230   5.106  0.00  0.00    +0.144 C 
BRANCH  15  19
ATOM     19  C21 CHE B   00     16.229  67.572   5.890  0.00  0.00    +0.091 A 
ATOM     20  C22 CHE B   00     16.866  67.740   5.080  0.00  0.00    +0.030 A 
ATOM     21  C23 CHE B   00     18.355  69.080   1.617  0.00  0.00    +0.004 A 
ATOM     22  C24 CHE B   00     17.256  68.634   3.274  0.00  0.00    +0.020 A 
ATOM     23  C25 CHE B   00     17.780  69.443   1.497  0.00  0.00    +0.111 A 
ATOM     24  N3  CHE B   00     14.365  66.468   9.274  0.00  0.00    -0.253 NA
ENDBRANCH  15  19
ENDBRANCH   1  14
BRANCH   7  25
ATOM     25  O1  CHE B   00     21.635  69.281   9.734  0.00  0.00    -0.494 OA
BRANCH  25  26
ATOM     26  C11 CHE B   00     23.634  70.115   8.734  0.00  0.00    +0.210 C 
BRANCH  26  27
ATOM     27  C12 CHE B   00     22.575  69.709  11.566  0.00  0.00    -0.037 C 
BRANCH  27  28
ATOM     28  N2  CHE B   00     24.183  70.263  11.455  0.00  0.00    +0.385 N 
ATOM     29  C13 CHE B   00     24.934  70.338  11.888  0.00  0.00    -0.050 C 
ATOM     30  C14 CHE B   00     26.234  71.255  10.561  0.00  0.00    +0.141 C 
ATOM     31  O2  CHE B   00     24.458  68.714  15.766  0.00  0.00    -0.383 OA
ATOM     32  C15 CHE B   00     24.886  69.545  13.936  0.00  0.00    +0.141 C 
ATOM     33  C16 CHE B   00     22.775  68.546  14.795  0.00  0.00    -0.050 C 
ATOM     34  H12 CHE B   00     24.608  70.699  10.662  0.00  0.00    -0.081 HD
ENDBRANCH  27  28
ENDBRANCH  26  27
ENDBRANCH  25  26
ENDBRANCH   7  25
TORSDOF 6
ENDMDL
MODEL 3
REMARK VINA RESULT:     -12.3      2.946      6.295
REMARK  Name = dock_mp/CHEMBL2/CHEMBL260015.pdb
REMARK  6 active torsions:
REMARK  status: ('A' for Active; 'I' for Inactive)
REMARK    1  A    between atoms: C4_4  and  C5_5
REMARK    2  A    between atoms: C10_11  and  O1_12
REMARK    3  A    between atoms: O1_12  and  C11_13
REMARK    4  A    between atoms: C11_13  and  C12_14
REMARK    5  A    between atoms: C12_14  and  N2_15
REMARK    6  A    between atoms: C20_24  and  C21_25
REMARK                            x       y       z     vdW  Elec       q    Type
REMARK                         _______ _______ _______ _____ _____    ______ ____
ROOT
ATOM      1  C5  CHE B   00     19.225  68.668  12.754  0.00  0.00    -0.003 A 
ATOM      2  C6  CHE B   00     17.271  67.348   6.163  0.00  0.00    +0.029 A 
ATOM      3  C7  CHE B   00     18.764  68.256   7.676  0.00  0.00    +0.112 A 
ATOM      4  N1  CHE B   00     20.838  69.555  11.064  0.00  0.00    -0.255 NA
ATOM      5  C8  CHE B   00     19.024  68.314   4.418  0.00  0.00    +0.075 A 
ATOM      6  C9  CHE B   00     21.384  69.805   8.744  0.00  0.00    +0.074 A 
ATOM      7  C10 CHE B   00     21.801  70.072   9.631  0.00  0.00    +0.122 A 
ATOM      8  C17 CHE B   00     21.109  69.709  10.957  0.00  0.00    +0.046 A 
ATOM      9  C18 CHE B   00     18.480  68.034   5.685  0.00  0.00    +0.014 A 
ATOM     10  C19 CHE B   00     18.095  67.786   4.785  0.00  0.00    +0.008 A 
ENDROOT
BRANCH   1  14
ATOM     11  C1  CHE B   00     14.867  65.829   5.027  0.00  0.00    +0.029 C 
ATOM     12  C2  CHE B   00     17.593  67.573  11.316  0.00  0.00    +0.057 C 
ATOM     13  C3  CHE B   00     15.441  66.230   4.786  0.00  0.00    +0.048 A 
ATOM     14  C4  CHE B   00     16.383  66.843   6.514  0.00  0.00    +0.033 A 
ATOM     15  C20 CHE B   00     16.318  66.751   8.665  0.00  0.00    +0.119 A 
ATOM     16  N4  CHE B   00     16.153  66.589  10.859  0.00  0.00    -0.169 NA
ATOM     17  N5  CHE B   00     15.174  65.998   7.022  0.00  0.00    -0.267 N 
ATOM     18  C26 CHE B   00     15.557  66.196  10.047  0.00  0.00    +0.144 C 
BRANCH  15  19
ATOM     19  C21 CHE B   00     16.642  66.955   9.591  0.00  0.00    +0.091 A 
ATOM     20  C22 CHE B   00     16.376  66.969   8.582  0.00  0.00    +0.030 A 
ATOM     21  C23 CHE B   00     15.005  65.874   4.986  0.00  0.00    +0.004 A 
ATOM     22  C24 CHE B   00     15.588  66.037   6.932  0.00  0.00    +0.020 A 
ATOM     23  C25 CHE B   00     14.839  65.249   5.226  0.00  0.00    +0.111 A 
ATOM     24  N3  CHE B   00     17.905  67.642  13.343  0.00  0.00    -0.253 NA
ENDBRANCH  15  19
ENDBRANCH   1  14
BRANCH   7  25
ATOM     25  O1  CHE B   00     22.216  70.248   7.363  0.00  0.00    -0.494 OA
BRANCH  25  26
ATOM     26  C11 CHE B   00     22.547  70.502   5.015  0.00  0.00    +0.210 C 
BRANCH  26  27
ATOM     27  C12 CHE B   00     24.198  69.546   7.394  0.00  0.00    -0.037 C 
BRANCH  27  28
ATOM     28  N2  CHE B   00     24.949  69.398   5.872  0.00  0.00    +0.385 N 
ATOM     29  C13 CHE B   00     25.697  69.510   5.442  0.00  0.00    -0.050 C 
ATOM     30  C14 CHE B   00     25.292  68.930   3.495  0.00  0.00    +0.141 C 
ATOM     31  O2  CHE B   00     28.622  70.986   8.120  0.00  0.00    -0.383 OA
ATOM     32  C15 CHE B   00     27.349  70.276   6.672  0.00  0.00    +0.141 C 
ATOM     33  C16 CHE B   00     26.946  70.735   9.084  0.00  0.00    -0.050 C 
ATOM     34  H12 CHE B   00     24.523  69.075   5.027  0.00  0.00    -0.081 HD
ENDBRANCH  27  28
ENDBRANCH  26  27
ENDBRANCH  25  26
ENDBRANCH   7  25
TORSDOF 6
ENDMDL
MODEL 4
REMARK VINA RESULT:     -12.2      2.158      2.968
REMARK  Name = dock_mp/CHEMBL2/CHEMBL260015.pdb
REMARK  6 active torsions:
REMARK  status: ('A' for Active; 'I' for Inactive)
REMARK    1  A    between atoms: C4_4  and  C5_5
REMARK    2  A    between atoms: C10_11  and  O1_12
REMARK    3  A    between atoms: O1_12  and  C11_13
REMARK    4  A    between atoms: C11_13  and  C12_14
REMARK    5  A    between atoms: C12_14  and  N2_15
REMARK    6  A    between atoms: C20_24  and  C21_25
REMARK                            x       y       z     vdW  Elec       q    Type
REMARK                         _______ _______ _______ _____ _____    ______ ____
ROOT
ATOM      1  C5  CHE B   00     21.990  70.176   3.092  0.00  0.00    -0.003 A 
ATOM      2  C6  CHE B   00     16.728  67.067   6.505  0.00  0.00    +0.029 A 
ATOM      3  C7  CHE B   00     18.734  68.217   6.516  0.00  0.00    +0.112 A 
ATOM      4  N1  CHE B   00     22.255  70.262   5.576  0.00  0.00    -0.255 NA
ATOM      5  C8  CHE B   00     17.068  67.192   9.136  0.00  0.00    +0.075 A 
ATOM      6  C9  CHE B   00     21.344  69.683   7.715  0.00  0.00    +0.074 A 
ATOM      7  C10 CHE B   00     22.170  70.166   7.374  0.00  0.00    +0.122 A 
ATOM      8  C17 CHE B   00     22.400  70.338   5.862  0.00  0.00    +0.046 A 
ATOM      9  C18 CHE B   00     17.377  67.405   7.780  0.00  0.00    +0.014 A 
ATOM     10  C19 CHE B   00     16.569  66.931   8.156  0.00  0.00    +0.008 A 
ENDROOT
BRANCH   1  14
ATOM     11  C1  CHE B   00     14.123  65.815   5.511  0.00  0.00    +0.029 C 
ATOM     12  C2  CHE B   00     19.782  69.166   2.909  0.00  0.00    +0.057 C 
ATOM     13  C3  CHE B   00     14.521  65.850   6.134  0.00  0.00    +0.048 A 
ATOM     14  C4  CHE B   00     16.252  66.818   5.569  0.00  0.00    +0.033 A 
ATOM     15  C20 CHE B   00     17.283  67.724   3.909  0.00  0.00    +0.119 A 
ATOM     16  N4  CHE B   00     18.244  68.623   2.139  0.00  0.00    -0.169 NA
ATOM     17  N5  CHE B   00     15.413  66.744   4.255  0.00  0.00    -0.267 N 
ATOM     18  C26 CHE B   00     17.293  68.132   2.287  0.00  0.00    +0.144 C 
BRANCH  15  19
ATOM     19  C21 CHE B   00     18.046  68.198   3.466  0.00  0.00    +0.091 A 
ATOM     20  C22 CHE B   00     17.260  67.890   4.080  0.00  0.00    +0.030 A 
ATOM     21  C23 CHE B   00     14.238  65.776   5.630  0.00  0.00    +0.004 A 
ATOM     22  C24 CHE B   00     15.790  66.538   4.552  0.00  0.00    +0.020 A 
ATOM     23  C25 CHE B   00     14.305  65.297   5.138  0.00  0.00    +0.111 A 
ATOM     24  N3  CHE B   00     21.111  70.000   1.595  0.00  0.00    -0.253 NA
ENDBRANCH  15  19
ENDBRANCH   1  14
BRANCH   7  25
ATOM     25  O1  CHE B   00     21.189  69.551   9.375  0.00  0.00    -0.494 OA
BRANCH  25  26
ATOM     26  C11 CHE B   00     20.078  68.882  11.377  0.00  0.00    +0.210 C 
BRANCH  26  27
ATOM     27  C12 CHE B   00     22.428  70.682  10.642  0.00  0.00    -0.037 C 
BRANCH  27  28
ATOM     28  N2  CHE B   00     22.679  69.654  11.978  0.00  0.00    +0.385 N 
ATOM     29  C13 CHE B   00     23.234  69.089  12.338  0.00  0.00    -0.050 C 
ATOM     30  C14 CHE B   00     22.320  68.477  14.093  0.00  0.00    +0.141 C 
ATOM     31  O2  CHE B   00     26.631  68.714   9.842  0.00  0.00    -0.383 OA
ATOM     32  C15 CHE B   00     25.073  68.758  11.181  0.00  0.00    +0.141 C 
ATOM     33  C16 CHE B   00     25.387  69.981   9.037  0.00  0.00    -0.050 C 
ATOM     34  H12 CHE B   00     22.056  69.517  12.749  0.00  0.00    -0.081 HD
ENDBRANCH  27  28
ENDBRANCH  26  27
ENDBRANCH  25  26
ENDBRANCH   7  25
TORSDOF 6
ENDMDL
MODEL 5
REMARK VINA RESULT:     -12.0      2.679      3.993
REMARK  Name = dock_mp/CHEMBL2/CHEMBL260015.pdb
REMARK  6 active torsions:
REMARK  status: ('A' for Active; 'I' for Inactive)
REMARK    1  A    between atoms: C4_4  and  C5_5
REMARK    2  A    between atoms: C10_11  and  O1_12
REMARK    3  A    between atoms: O1_12  and  C11_13
REMARK    4  A    between atoms: C11_13  and  C12_14
REMARK    5  A    between atoms: C12_14  and  N2_15
REMARK    6  A    between atoms: C20_24  and  C21_25
REMARK                            x       y       z     vdW  Elec       q    Type
REMARK                         _______ _______ _______ _____ _____    ______ ____
ROOT
ATOM      1  C5  CHE B   00     25.240  69.783   5.320  0.00  0.00    -0.003 A 
ATOM      2  C6  CHE B   00     18.397  68.775   4.245  0.00  0.00    +0.029 A 
ATOM      3  C7  CHE B   00     20.230  68.807   5.654  0.00  0.00    +0.112 A 
ATOM      4  N1  CHE B   00     24.016  69.122   7.395  0.00  0.00    -0.255 NA
ATOM      5  C8  CHE B   00     17.154  68.076   6.486  0.00  0.00    +0.075 A 
ATOM      6  C9  CHE B   00     21.916  68.533   8.389  0.00  0.00    +0.074 A 
ATOM      7  C10 CHE B   00     22.876  68.639   8.706  0.00  0.00    +0.122 A 
ATOM      8  C17 CHE B   00     23.980  69.048   7.715  0.00  0.00    +0.046 A 
ATOM      9  C18 CHE B   00     18.239  68.445   5.669  0.00  0.00    +0.014 A 
ATOM     10  C19 CHE B   00     17.275  68.330   5.391  0.00  0.00    +0.008 A 
ENDROOT
BRANCH   1  14
ATOM     11  C1  CHE B   00     16.691  68.984   1.710  0.00  0.00    +0.029 C 
ATOM     12  C2  CHE B   00     23.435  69.780   3.684  0.00  0.00    +0.057 C 
ATOM     13  C3  CHE B   00     16.609  68.833   2.430  0.00  0.00    +0.048 A 
ATOM     14  C4  CHE B   00     18.512  69.017   3.199  0.00  0.00    +0.033 A 
ATOM     15  C20 CHE B   00     20.560  69.467   2.705  0.00  0.00    +0.119 A 
ATOM     16  N4  CHE B   00     22.622  69.944   2.084  0.00  0.00    -0.169 NA
ATOM     17  N5  CHE B   00     18.685  69.336   1.682  0.00  0.00    -0.267 N 
ATOM     18  C26 CHE B   00     21.688  69.884   1.543  0.00  0.00    +0.144 C 
BRANCH  15  19
ATOM     19  C21 CHE B   00     21.533  69.598   2.905  0.00  0.00    +0.091 A 
ATOM     20  C22 CHE B   00     20.489  69.586   2.900  0.00  0.00    +0.030 A 
ATOM     21  C23 CHE B   00     16.689  68.908   1.847  0.00  0.00    +0.004 A 
ATOM     22  C24 CHE B   00     18.715  69.036   2.027  0.00  0.00    +0.020 A 
ATOM     23  C25 CHE B   00     16.894  68.565   1.285  0.00  0.00    +0.111 A 
ATOM     24  N3  CHE B   00     25.466  70.053   3.591  0.00  0.00    -0.253 NA
ENDBRANCH  15  19
ENDBRANCH   1  14
BRANCH   7  25
ATOM     25  O1  CHE B   00     20.794  68.086   9.544  0.00  0.00    -0.494 OA
BRANCH  25  26
ATOM     26  C11 CHE B   00     18.602  67.616  10.360  0.00  0.00    +0.210 C 
BRANCH  26  27
ATOM     27  C12 CHE B   00     21.294  68.393  11.564  0.00  0.00    -0.037 C 
BRANCH  27  28
ATOM     28  N2  CHE B   00     20.091  67.945  12.684  0.00  0.00    +0.385 N 
ATOM     29  C13 CHE B   00     19.919  67.842  13.531  0.00  0.00    -0.050 C 
ATOM     30  C14 CHE B   00     17.950  67.206  13.610  0.00  0.00    +0.141 C 
ATOM     31  O2  CHE B   00     23.375  68.826  15.766  0.00  0.00    -0.383 OA
ATOM     32  C15 CHE B   00     21.604  68.308  14.863  0.00  0.00    +0.141 C 
ATOM     33  C16 CHE B   00     23.759  69.055  13.868  0.00  0.00    -0.050 C 
ATOM     34  H12 CHE B   00     19.157  67.657  12.470  0.00  0.00    -0.081 HD
ENDBRANCH  27  28
ENDBRANCH  26  27
ENDBRANCH  25  26
ENDBRANCH   7  25
TORSDOF 6
ENDMDL
MODEL 6
REMARK VINA RESULT:     -11.9      2.182      5.575
REMARK  Name = dock_mp/CHEMBL2/CHEMBL260015.pdb
REMARK  6 active torsions:
REMARK  status: ('A' for Active; 'I' for Inactive)
REMARK    1  A    between atoms: C4_4  and  C5_5
REMARK    2  A    between atoms: C10_11  and  O1_12
REMARK    3  A    between atoms: O1_12  and  C11_13
REMARK    4  A    between atoms: C11_13  and  C12_14
REMARK    5  A    between atoms: C12_14  and  N2_15
REMARK    6  A    between atoms: C20_24  and  C21_25
REMARK                            x       y       z     vdW  Elec       q    Type
REMARK                         _______ _______ _______ _____ _____    ______ ____
ROOT
ATOM      1  C5  CHE B   00     14.667  67.134   8.038  0.00  0.00    -0.003 A 
ATOM      2  C6  CHE B   00     20.892  69.258   5.640  0.00  0.00    +0.029 A 
ATOM      3  C7  CHE B   00     19.473  68.766   7.397  0.00  0.00    +0.112 A 
ATOM      4  N1  CHE B   00     16.284  67.669   9.866  0.00  0.00    -0.255 NA
ATOM      5  C8  CHE B   00     22.562  69.811   7.628  0.00  0.00    +0.075 A 
ATOM      6  C9  CHE B   00     18.487  68.412  10.448  0.00  0.00    +0.074 A 
ATOM      7  C10 CHE B   00     17.651  68.125  10.949  0.00  0.00    +0.122 A 
ATOM      8  C17 CHE B   00     16.388  67.703  10.177  0.00  0.00    +0.046 A 
ATOM      9  C18 CHE B   00     21.356  69.407   7.026  0.00  0.00    +0.014 A 
ATOM     10  C19 CHE B   00     22.205  69.697   6.562  0.00  0.00    +0.008 A 
ENDROOT
BRANCH   1  14
ATOM     11  C1  CHE B   00     21.970  69.560   2.790  0.00  0.00    +0.029 C 
ATOM     12  C2  CHE B   00     16.045  67.517   6.066  0.00  0.00    +0.057 C 
ATOM     13  C3  CHE B   00     22.183  69.695   3.486  0.00  0.00    +0.048 A 
ATOM     14  C4  CHE B   00     20.550  69.149   4.621  0.00  0.00    +0.033 A 
ATOM     15  C20 CHE B   00     18.545  68.368   4.533  0.00  0.00    +0.119 A 
ATOM     16  N4  CHE B   00     16.502  67.563   4.323  0.00  0.00    -0.169 NA
ATOM     17  N5  CHE B   00     20.103  68.866   3.153  0.00  0.00    -0.267 N 
ATOM     18  C26 CHE B   00     17.273  67.806   3.605  0.00  0.00    +0.144 C 
BRANCH  15  19
ATOM     19  C21 CHE B   00     17.674  68.061   4.921  0.00  0.00    +0.091 A 
ATOM     20  C22 CHE B   00     18.674  68.277   4.713  0.00  0.00    +0.030 A 
ATOM     21  C23 CHE B   00     21.990  69.623   2.925  0.00  0.00    +0.004 A 
ATOM     22  C24 CHE B   00     20.103  69.111   3.500  0.00  0.00    +0.020 A 
ATOM     23  C25 CHE B   00     21.619  69.884   2.406  0.00  0.00    +0.111 A 
ATOM     24  N3  CHE B   00     14.116  66.885   6.371  0.00  0.00    -0.253 NA
ENDBRANCH  15  19
ENDBRANCH   1  14
BRANCH   7  25
ATOM     25  O1  CHE B   00     19.803  68.852  11.380  0.00  0.00    -0.494 OA
BRANCH  25  26
ATOM     26  C11 CHE B   00     22.044  69.602  11.705  0.00  0.00    +0.210 C 
BRANCH  26  27
ATOM     27  C12 CHE B   00     19.731  68.700  13.476  0.00  0.00    -0.037 C 
BRANCH  27  28
ATOM     28  N2  CHE B   00     21.290  68.442  14.115  0.00  0.00    +0.385 N 
ATOM     29  C13 CHE B   00     21.744  67.989  14.702  0.00  0.00    -0.050 C 
ATOM     30  C14 CHE B   00     23.701  68.631  14.483  0.00  0.00    +0.141 C 
ATOM     31  O2  CHE B   00     19.115  65.422  16.800  0.00  0.00    -0.383 OA
ATOM     32  C15 CHE B   00     20.544  66.590  15.900  0.00  0.00    +0.141 C 
ATOM     33  C16 CHE B   00     18.096  66.438  15.485  0.00  0.00    -0.050 C 
ATOM     34  H12 CHE B   00     22.132  68.899  13.831  0.00  0.00    -0.081 HD
ENDBRANCH  27  28
ENDBRANCH  26  27
ENDBRANCH  25  26
ENDBRANCH   7  25
TORSDOF 6
ENDMDL
MODEL 7
REMARK VINA RESULT:     -11.5      3.342      6.141
REMARK  Name = dock_mp/CHEMBL2/CHEMBL260015.pdb
REMARK  6 active torsions:
REMARK  status: ('A' for Active; 'I' for Inactive)
REMARK    1  A    between atoms: C4_4  and  C5_5
REMARK    2  A    between atoms: C10_11  and  O1_12
REMARK    3  A    between atoms: O1_12  and  C11_13
REMARK    4  A    between atoms: C11_13  and  C12_14
REMARK    5  A    between atoms: C12_14  and  N2_15
REMARK    6  A    between atoms: C20_24  and  C21_25
REMARK                            x       y       z     vdW  Elec       q    Type
REMARK                         _______ _______ _______ _____ _____    ______ ____
ROOT
ATOM      1  C5  CHE B   00     17.876  67.874  10.846  0.00  0.00    -0.003 A 
ATOM      2  C6  CHE B   00     19.156  68.873   4.037  0.00  0.00    +0.029 A 
ATOM      3  C7  CHE B   00     19.887  68.766   6.228  0.00  0.00    +0.112 A 
ATOM      4  N1  CHE B   00     20.277  68.378  10.370  0.00  0.00    -0.255 NA
ATOM      5  C8  CHE B   00     21.721  69.404   3.597  0.00  0.00    +0.075 A 
ATOM      6  C9  CHE B   00     21.937  68.874   8.715  0.00  0.00    +0.074 A 
ATOM      7  C10 CHE B   00     21.917  68.758   9.724  0.00  0.00    +0.122 A 
ATOM      8  C17 CHE B   00     20.595  68.429  10.441  0.00  0.00    +0.046 A 
ATOM      9  C18 CHE B   00     20.573  69.104   4.354  0.00  0.00    +0.014 A 
ATOM     10  C19 CHE B   00     20.632  69.227   3.353  0.00  0.00    +0.008 A 
ENDROOT
BRANCH   1  14
ATOM     11  C1  CHE B   00     17.329  68.711   1.585  0.00  0.00    +0.029 C 
ATOM     12  C2  CHE B   00     16.949  67.843   8.594  0.00  0.00    +0.057 C 
ATOM     13  C3  CHE B   00     18.025  68.898   1.753  0.00  0.00    +0.048 A 
ATOM     14  C4  CHE B   00     18.116  68.704   3.803  0.00  0.00    +0.033 A 
ATOM     15  C20 CHE B   00     16.983  68.181   5.559  0.00  0.00    +0.119 A 
ATOM     16  N4  CHE B   00     15.728  67.625   7.286  0.00  0.00    -0.169 NA
ATOM     17  N5  CHE B   00     16.648  68.310   3.450  0.00  0.00    -0.267 N 
ATOM     18  C26 CHE B   00     15.532  67.682   6.224  0.00  0.00    +0.144 C 
BRANCH  15  19
ATOM     19  C21 CHE B   00     16.849  68.035   6.541  0.00  0.00    +0.091 A 
ATOM     20  C22 CHE B   00     17.196  68.069   5.557  0.00  0.00    +0.030 A 
ATOM     21  C23 CHE B   00     17.455  68.794   1.631  0.00  0.00    +0.004 A 
ATOM     22  C24 CHE B   00     16.949  68.629   3.598  0.00  0.00    +0.020 A 
ATOM     23  C25 CHE B   00     16.844  69.115   1.638  0.00  0.00    +0.111 A 
ATOM     24  N3  CHE B   00     16.191  67.519  10.471  0.00  0.00    -0.253 NA
ENDBRANCH  15  19
ENDBRANCH   1  14
BRANCH   7  25
ATOM     25  O1  CHE B   00     23.422  69.229   8.034  0.00  0.00    -0.494 OA
BRANCH  25  26
ATOM     26  C11 CHE B   00     25.018  69.602   6.301  0.00  0.00    +0.210 C 
BRANCH  26  27
ATOM     27  C12 CHE B   00     25.066  69.351   9.340  0.00  0.00    -0.037 C 
BRANCH  27  28
ATOM     28  N2  CHE B   00     26.208  68.400   8.506  0.00  0.00    +0.385 N 
ATOM     29  C13 CHE B   00     27.056  68.217   8.436  0.00  0.00    -0.050 C 
ATOM     30  C14 CHE B   00     27.178  66.782   6.947  0.00  0.00    +0.141 C 
ATOM     31  O2  CHE B   00     29.209  70.570  11.217  0.00  0.00    -0.383 OA
ATOM     32  C15 CHE B   00     28.347  69.347   9.809  0.00  0.00    +0.141 C 
ATOM     33  C16 CHE B   00     27.309  70.980  11.374  0.00  0.00    -0.050 C 
ATOM     34  H12 CHE B   00     26.016  67.737   7.782  0.00  0.00    -0.081 HD
ENDBRANCH  27  28
ENDBRANCH  26  27
ENDBRANCH  25  26
ENDBRANCH   7  25
TORSDOF 6
ENDMDL
