REMARK  Name = dock_mp/CHEMBL6/CHEMBL6252.pdb
REMARK  4 active torsions:
REMARK  status: ('A' for Active; 'I' for Inactive)
REMARK    1  A    between atoms: C1_2  and  C2_4
REMARK    2  A    between atoms: C5_7  and  C6_8
REMARK    3  A    between atoms: C7_10  and  C8_11
REMARK    4  A    between atoms: C14_18  and  C15_19
REMARK                            x       y       z     vdW  Elec       q    Type
REMARK                         _______ _______ _______ _____ _____    ______ ____
ROOT
ATOM      1  C6  CHE B   02      1.000   1.355  -0.149  0.00  0.00    +0.139 A 
ATOM      2  N1  CHE B   02      1.000   0.325  -0.918  0.00  0.00    -0.227 NA
ATOM      3  C7  CHE B   02      1.000  -0.844  -0.390  0.00  0.00    +0.097 A 
ATOM      4  C14 CHE B   02      1.000  -0.513   0.774  0.00  0.00    +0.074 A 
ATOM      5  N3  CHE B   02      1.000   0.836   0.893  0.00  0.00    -0.337 N 
ATOM      6  H11 CHE B   02      1.000   1.373   1.690  0.00  0.00    +0.167 HD
ENDROOT
BRANCH   3   7
ATOM      7  C8  CHE B   02      1.000  -2.194  -0.905  0.00  0.00    +0.003 A 
ATOM      8  C9  CHE B   02      1.000  -2.911  -1.257  0.00  0.00    +0.013 A 
ATOM      9  C10 CHE B   02      1.000  -4.177  -1.746  0.00  0.00    +0.039 A 
ATOM     10  C11 CHE B   02      1.000  -4.746  -1.890  0.00  0.00    +0.123 A 
ATOM     11  F1  CHE B   02      1.000  -6.008  -2.379  0.00  0.00    -0.205 F 
ATOM     12  C12 CHE B   02      1.000  -4.036  -1.541  0.00  0.00    +0.039 A 
ATOM     13  C13 CHE B   02      1.000  -2.745  -1.042  0.00  0.00    +0.013 A 
ENDBRANCH   3   7
BRANCH   1  17
ATOM     14  C2  CHE B   02      1.000   5.417  -0.938  0.00  0.00    +0.063 A 
ATOM     15  C3  CHE B   02      1.000   4.467  -1.817  0.00  0.00    +0.016 A 
ATOM     16  C4  CHE B   02      1.000   3.139  -1.543  0.00  0.00    +0.012 A 
ATOM     17  C5  CHE B   02      1.000   2.768  -0.413  0.00  0.00    +0.017 A 
ATOM     18  C20 CHE B   02      1.000   3.726   0.465  0.00  0.00    +0.012 A 
ATOM     19  C21 CHE B   02      1.000   5.059   0.188  0.00  0.00    +0.016 A 
BRANCH  14  21
ATOM     20  O1  CHE B   02      1.000   7.229  -2.317  0.00  0.00    -0.241 OA
ATOM     21  C1  CHE B   02      1.000   6.821  -1.199  0.00  0.00    +0.387 C 
ATOM     22  O2  CHE B   02      1.000   7.683  -0.391  0.00  0.00    -0.241 OA
ENDBRANCH  14  21
ENDBRANCH   1  17
BRANCH   4  23
ATOM     23  C15 CHE B   02      1.000  -1.498   1.660  0.00  0.00    +0.003 A 
ATOM     24  C16 CHE B   02      1.000  -1.529   1.910  0.00  0.00    +0.030 A 
ATOM     25  C17 CHE B   02      1.000  -2.504   2.767  0.00  0.00    +0.111 A 
ATOM     26  N2  CHE B   02      1.000  -3.404   3.348  0.00  0.00    -0.263 NA
ATOM     27  C18 CHE B   02      1.000  -3.384   3.116  0.00  0.00    +0.111 A 
ATOM     28  C19 CHE B   02      1.000  -2.428   2.267  0.00  0.00    +0.030 A 
ENDBRANCH   4  23
TORSDOF 4
