REMARK  Name = dock_mp/CHEMBL6/CHEMBL606632.pdb
REMARK  5 active torsions:
REMARK  status: ('A' for Active; 'I' for Inactive)
REMARK    1  A    between atoms: C1_1  and  C2_2
REMARK    2  A    between atoms: C6_6  and  C7_7
REMARK    3  A    between atoms: C8_8  and  C9_9
REMARK    4  A    between atoms: N3_19  and  C17_20
REMARK    5  A    between atoms: N4_21  and  C18_22
REMARK                            x       y       z     vdW  Elec       q    Type
REMARK                         _______ _______ _______ _____ _____    ______ ____
ROOT
ATOM      1  C7  CHE B   06      1.000   1.260   0.000  0.00  0.00    +0.092 A 
ATOM      2  C8  CHE B   06      1.000  -0.070   9.000  0.00  0.00    +0.080 A 
ATOM      3  N3  CHE B   06      1.000  -0.330   5.000  0.00  0.00    -0.283 N 
ATOM      4  C17 CHE B   06      1.000  -1.630   8.000  0.00  0.00    +0.171 C 
ATOM      5  N4  CHE B   06      1.000   0.760   5.000  0.00  0.00    -0.252 N 
ATOM      6  C18 CHE B   06      1.000   0.970   1.000  0.00  0.00    +0.174 C 
ATOM      7  C19 CHE B   06      1.000   1.790   8.000  0.00  0.00    +0.277 A 
ATOM      8  O1  CHE B   06      1.000   2.980   6.000  0.00  0.00    -0.265 OA
ENDROOT
BRANCH   2   9
ATOM      9  C9  CHE B   06      1.000  -1.000   3.000  0.00  0.00    +0.003 A 
ATOM     10  C10 CHE B   06      1.000  -0.870   7.000  0.00  0.00    +0.012 A 
ATOM     11  C11 CHE B   06      1.000  -1.800   7.000  0.00  0.00    +0.030 A 
ATOM     12  C12 CHE B   06      1.000  -2.850   5.000  0.00  0.00    +0.089 A 
ATOM     13  N1  CHE B   06      1.000  -3.760   1.000  0.00  0.00    -0.252 NA
ATOM     14  C13 CHE B   06      1.000  -4.770   9.000  0.00  0.00    +0.131 A 
ATOM     15  C14 CHE B   06      1.000  -4.910   4.000  0.00  0.00    +0.131 A 
ATOM     16  N2  CHE B   06      1.000  -3.980   2.000  0.00  0.00    -0.252 NA
ATOM     17  C15 CHE B   06      1.000  -2.970   4.000  0.00  0.00    +0.090 A 
ATOM     18  C16 CHE B   06      1.000  -2.060   7.000  0.00  0.00    +0.040 A 
ENDBRANCH   2   9
BRANCH   1  24
ATOM     19  C1  CHE B   06      1.000   3.300   4.000  0.00  0.00    +0.065 C 
ATOM     20  C2  CHE B   06      1.000   3.050   3.000  0.00  0.00    +0.039 A 
ATOM     21  C3  CHE B   06      1.000   3.630   6.000  0.00  0.00    +0.023 A 
ATOM     22  C4  CHE B   06      1.000   3.430   4.000  0.00  0.00    +0.004 A 
ATOM     23  C5  CHE B   06      1.000   2.640   0.000  0.00  0.00    +0.028 A 
ATOM     24  C6  CHE B   06      1.000   2.070   2.000  0.00  0.00    +0.079 A 
ATOM     25  N5  CHE B   06      1.000   2.280   2.000  0.00  0.00    -0.252 NA
ENDBRANCH   1  24
TORSDOF 2
