REMARK  Name = dock_mp/CHEMBL6/CHEMBL6250.pdb
REMARK  4 active torsions:
REMARK  status: ('A' for Active; 'I' for Inactive)
REMARK    1  A    between atoms: C1_2  and  C2_4
REMARK    2  A    between atoms: C5_7  and  C6_8
REMARK    3  A    between atoms: C7_10  and  C8_11
REMARK    4  A    between atoms: C15_20  and  C16_21
REMARK                            x       y       z     vdW  Elec       q    Type
REMARK                         _______ _______ _______ _____ _____    ______ ____
ROOT
ATOM      1  C6  CHE B   00      1.000  -1.712  -0.216  0.00  0.00    +0.139 A 
ATOM      2  N1  CHE B   00      1.000  -0.533  -0.864  0.00  0.00    -0.227 NA
ATOM      3  C7  CHE B   00      1.000   0.484   0.030  0.00  0.00    +0.099 A 
ATOM      4  C15 CHE B   00      1.000  -0.086   1.279  0.00  0.00    +0.093 A 
ATOM      5  N3  CHE B   00      1.000  -1.410   1.093  0.00  0.00    -0.336 N 
ATOM      6  H12 CHE B   00      1.000  -2.134   1.864  0.00  0.00    +0.167 HD
ENDROOT
BRANCH   3   7
ATOM      7  C8  CHE B   00      1.000   1.867  -0.390  0.00  0.00    +0.006 A 
ATOM      8  C9  CHE B   00      1.000   2.670  -0.191  0.00  0.00    +0.014 A 
ATOM      9  C10 CHE B   00      1.000   3.975  -0.633  0.00  0.00    +0.050 A 
ATOM     10  C11 CHE B   00      1.000   4.485  -1.290  0.00  0.00    +0.166 A 
ATOM     11  O3  CHE B   00      1.000   5.729  -1.846  0.00  0.00    -0.453 OA
ATOM     12  C12 CHE B   00      1.000   5.544  -2.718  0.00  0.00    +0.466 C 
ATOM     13  O4  CHE B   00      1.000   4.424  -2.176  0.00  0.00    -0.453 OA
ATOM     14  C13 CHE B   00      1.000   3.688  -1.506  0.00  0.00    +0.167 A 
ATOM     15  C14 CHE B   00      1.000   2.390  -1.051  0.00  0.00    +0.059 A 
ENDBRANCH   3   7
BRANCH   1  19
ATOM     16  C2  CHE B   00      1.000  -5.437  -2.190  0.00  0.00    +0.063 A 
ATOM     17  C3  CHE B   00      1.000  -4.269  -2.941  0.00  0.00    +0.016 A 
ATOM     18  C4  CHE B   00      1.000  -3.069  -2.277  0.00  0.00    +0.012 A 
ATOM     19  C5  CHE B   00      1.000  -2.983  -0.890  0.00  0.00    +0.017 A 
ATOM     20  C21 CHE B   00      1.000  -4.182  -0.199  0.00  0.00    +0.012 A 
ATOM     21  C22 CHE B   00      1.000  -5.391  -0.825  0.00  0.00    +0.016 A 
BRANCH  16  23
ATOM     22  O1  CHE B   00      1.000  -6.784  -4.236  0.00  0.00    -0.241 OA
ATOM     23  C1  CHE B   00      1.000  -6.734  -2.847  0.00  0.00    +0.387 C 
ATOM     24  O2  CHE B   00      1.000  -7.764  -2.137  0.00  0.00    -0.241 OA
ENDBRANCH  16  23
ENDBRANCH   1  19
BRANCH   4  25
ATOM     25  C16 CHE B   00      1.000   0.564   2.570  0.00  0.00    +0.089 A 
ATOM     26  C17 CHE B   00      1.000   1.188   3.024  0.00  0.00    +0.030 A 
ATOM     27  C18 CHE B   00      1.000   1.770   4.274  0.00  0.00    +0.004 A 
ATOM     28  C19 CHE B   00      1.000   1.758   5.074  0.00  0.00    +0.020 A 
ATOM     29  C20 CHE B   00      1.000   1.122   4.587  0.00  0.00    +0.111 A 
ATOM     30  N2  CHE B   00      1.000   0.579   3.375  0.00  0.00    -0.253 NA
ENDBRANCH   4  25
TORSDOF 4
