MODEL 1
REMARK VINA RESULT:     -11.9      0.000      0.000
REMARK  Name = dock_mp/CHEMBL6/CHEMBL6250.pdb
REMARK  4 active torsions:
REMARK  status: ('A' for Active; 'I' for Inactive)
REMARK    1  A    between atoms: C1_2  and  C2_4
REMARK    2  A    between atoms: C5_7  and  C6_8
REMARK    3  A    between atoms: C7_10  and  C8_11
REMARK    4  A    between atoms: C15_20  and  C16_21
REMARK                            x       y       z     vdW  Elec       q    Type
REMARK                         _______ _______ _______ _____ _____    ______ ____
ROOT
ATOM      1  C6  CHE B   00     17.028  67.359   7.928  0.00  0.00    +0.139 A 
ATOM      2  N1  CHE B   00     16.120  66.454   7.523  0.00  0.00    -0.227 NA
ATOM      3  C7  CHE B   00     15.989  66.504   6.176  0.00  0.00    +0.099 A 
ATOM      4  C15 CHE B   00     16.849  67.476   5.730  0.00  0.00    +0.093 A 
ATOM      5  N3  CHE B   00     17.459  67.971   6.812  0.00  0.00    -0.336 N 
ATOM      6  H12 CHE B   00     18.185  68.740   6.805  0.00  0.00    +0.167 HD
ENDROOT
BRANCH   3   7
ATOM      7  C8  CHE B   00     15.076  65.636   5.467  0.00  0.00    +0.006 A 
ATOM      8  C9  CHE B   00     14.955  65.021   4.927  0.00  0.00    +0.014 A 
ATOM      9  C10 CHE B   00     14.052  64.214   4.271  0.00  0.00    +0.050 A 
ATOM     10  C11 CHE B   00     13.251  64.020   4.154  0.00  0.00    +0.166 A 
ATOM     11  O3  CHE B   00     12.265  63.284   3.568  0.00  0.00    -0.453 OA
ATOM     12  C12 CHE B   00     11.530  63.634   3.931  0.00  0.00    +0.466 C 
ATOM     13  O4  CHE B   00     12.456  64.286   4.447  0.00  0.00    -0.453 OA
ATOM     14  C13 CHE B   00     13.354  64.635   4.696  0.00  0.00    +0.167 A 
ATOM     15  C14 CHE B   00     14.267  65.434   5.344  0.00  0.00    +0.059 A 
ENDBRANCH   3   7
BRANCH   1  19
ATOM     16  C2  CHE B   00     18.089  67.919  11.970  0.00  0.00    +0.063 A 
ATOM     17  C3  CHE B   00     18.982  68.293  10.974  0.00  0.00    +0.016 A 
ATOM     18  C4  CHE B   00     18.615  68.101   9.666  0.00  0.00    +0.012 A 
ATOM     19  C5  CHE B   00     17.391  67.550   9.307  0.00  0.00    +0.017 A 
ATOM     20  C21 CHE B   00     16.546  67.198  10.345  0.00  0.00    +0.012 A 
ATOM     21  C22 CHE B   00     16.877  67.374  11.654  0.00  0.00    +0.016 A 
BRANCH  16  23
ATOM     22  O1  CHE B   00     17.705  67.414  14.336  0.00  0.00    -0.241 OA
ATOM     23  C1  CHE B   00     18.432  68.101  13.371  0.00  0.00    +0.387 C 
ATOM     24  O2  CHE B   00     19.372  68.874  13.661  0.00  0.00    -0.241 OA
ENDBRANCH  16  23
ENDBRANCH   1  19
BRANCH   4  25
ATOM     25  C16 CHE B   00     17.089  67.920   4.375  0.00  0.00    +0.089 A 
ATOM     26  C17 CHE B   00     17.457  67.887   3.697  0.00  0.00    +0.030 A 
ATOM     27  C18 CHE B   00     17.655  68.338   2.410  0.00  0.00    +0.004 A 
ATOM     28  C19 CHE B   00     17.507  68.812   1.782  0.00  0.00    +0.020 A 
ATOM     29  C20 CHE B   00     17.137  68.831   2.492  0.00  0.00    +0.111 A 
ATOM     30  N2  CHE B   00     16.960  68.383   3.729  0.00  0.00    -0.253 NA
ENDBRANCH   4  25
TORSDOF 4
ENDMDL
MODEL 2
REMARK VINA RESULT:     -10.7      3.737      6.582
REMARK  Name = dock_mp/CHEMBL6/CHEMBL6250.pdb
REMARK  4 active torsions:
REMARK  status: ('A' for Active; 'I' for Inactive)
REMARK    1  A    between atoms: C1_2  and  C2_4
REMARK    2  A    between atoms: C5_7  and  C6_8
REMARK    3  A    between atoms: C7_10  and  C8_11
REMARK    4  A    between atoms: C15_20  and  C16_21
REMARK                            x       y       z     vdW  Elec       q    Type
REMARK                         _______ _______ _______ _____ _____    ______ ____
ROOT
ATOM      1  C6  CHE B   00     18.447  68.008   4.982  0.00  0.00    +0.139 A 
ATOM      2  N1  CHE B   00     17.391  67.324   4.505  0.00  0.00    -0.227 NA
ATOM      3  C7  CHE B   00     16.634  66.870   5.531  0.00  0.00    +0.099 A 
ATOM      4  C15 CHE B   00     17.242  67.288   6.688  0.00  0.00    +0.093 A 
ATOM      5  N3  CHE B   00     18.332  67.970   6.320  0.00  0.00    -0.336 N 
ATOM      6  H12 CHE B   00     19.019  68.425   6.983  0.00  0.00    +0.167 HD
ENDROOT
BRANCH   3   7
ATOM      7  C8  CHE B   00     15.431  66.099   5.307  0.00  0.00    +0.006 A 
ATOM      8  C9  CHE B   00     14.689  65.848   5.572  0.00  0.00    +0.014 A 
ATOM      9  C10 CHE B   00     13.559  65.101   5.320  0.00  0.00    +0.050 A 
ATOM     10  C11 CHE B   00     13.166  64.595   4.790  0.00  0.00    +0.166 A 
ATOM     11  O3  CHE B   00     12.102  63.823   4.430  0.00  0.00    -0.453 OA
ATOM     12  C12 CHE B   00     12.356  63.516   3.632  0.00  0.00    +0.466 C 
ATOM     13  O4  CHE B   00     13.309  64.229   3.994  0.00  0.00    -0.453 OA
ATOM     14  C13 CHE B   00     13.904  64.836   4.511  0.00  0.00    +0.167 A 
ATOM     15  C14 CHE B   00     15.027  65.586   4.775  0.00  0.00    +0.059 A 
ENDBRANCH   3   7
BRANCH   1  19
ATOM     16  C2  CHE B   00     21.359  69.792   2.511  0.00  0.00    +0.063 A 
ATOM     17  C3  CHE B   00     20.069  69.618   2.026  0.00  0.00    +0.016 A 
ATOM     18  C4  CHE B   00     19.139  69.035   2.848  0.00  0.00    +0.012 A 
ATOM     19  C5  CHE B   00     19.440  68.617   4.139  0.00  0.00    +0.017 A 
ATOM     20  C21 CHE B   00     20.742  68.818   4.562  0.00  0.00    +0.012 A 
ATOM     21  C22 CHE B   00     21.691  69.393   3.774  0.00  0.00    +0.016 A 
BRANCH  16  23
ATOM     22  O1  CHE B   00     23.307  71.256   2.268  0.00  0.00    -0.241 OA
ATOM     23  C1  CHE B   00     22.381  70.405   1.678  0.00  0.00    +0.387 C 
ATOM     24  O2  CHE B   00     22.391  70.144   0.455  0.00  0.00    -0.241 OA
ENDBRANCH  16  23
ENDBRANCH   1  19
BRANCH   4  25
ATOM     25  C16 CHE B   00     16.834  67.064   8.057  0.00  0.00    +0.089 A 
ATOM     26  C17 CHE B   00     16.488  66.654   8.611  0.00  0.00    +0.030 A 
ATOM     27  C18 CHE B   00     16.117  66.478   9.928  0.00  0.00    +0.004 A 
ATOM     28  C19 CHE B   00     16.076  66.688  10.699  0.00  0.00    +0.020 A 
ATOM     29  C20 CHE B   00     16.430  67.100  10.110  0.00  0.00    +0.111 A 
ATOM     30  N2  CHE B   00     16.779  67.253   8.838  0.00  0.00    -0.253 NA
ENDBRANCH   4  25
TORSDOF 4
ENDMDL
MODEL 3
REMARK VINA RESULT:     -10.1      4.350      8.339
REMARK  Name = dock_mp/CHEMBL6/CHEMBL6250.pdb
REMARK  4 active torsions:
REMARK  status: ('A' for Active; 'I' for Inactive)
REMARK    1  A    between atoms: C1_2  and  C2_4
REMARK    2  A    between atoms: C5_7  and  C6_8
REMARK    3  A    between atoms: C7_10  and  C8_11
REMARK    4  A    between atoms: C15_20  and  C16_21
REMARK                            x       y       z     vdW  Elec       q    Type
REMARK                         _______ _______ _______ _____ _____    ______ ____
ROOT
ATOM      1  C6  CHE B   00     17.678  67.542   5.723  0.00  0.00    +0.139 A 
ATOM      2  N1  CHE B   00     18.546  67.878   4.752  0.00  0.00    -0.227 NA
ATOM      3  C7  CHE B   00     19.593  68.553   5.284  0.00  0.00    +0.099 A 
ATOM      4  C15 CHE B   00     19.364  68.638   6.635  0.00  0.00    +0.093 A 
ATOM      5  N3  CHE B   00     18.202  68.018   6.864  0.00  0.00    -0.336 N 
ATOM      6  H12 CHE B   00     17.745  67.911   7.812  0.00  0.00    +0.167 HD
ENDROOT
BRANCH   3   7
ATOM      7  C8  CHE B   00     20.681  69.038   4.466  0.00  0.00    +0.006 A 
ATOM      8  C9  CHE B   00     21.419  69.409   4.412  0.00  0.00    +0.014 A 
ATOM      9  C10 CHE B   00     22.435  69.858   3.596  0.00  0.00    +0.050 A 
ATOM     10  C11 CHE B   00     22.716  69.935   2.817  0.00  0.00    +0.166 A 
ATOM     11  O3  CHE B   00     23.653  70.335   1.912  0.00  0.00    -0.453 OA
ATOM     12  C12 CHE B   00     23.286  70.082   1.140  0.00  0.00    +0.466 C 
ATOM     13  O4  CHE B   00     22.453  69.730   1.994  0.00  0.00    -0.453 OA
ATOM     14  C13 CHE B   00     21.980  69.563   2.854  0.00  0.00    +0.167 A 
ATOM     15  C14 CHE B   00     20.973  69.120   3.680  0.00  0.00    +0.059 A 
ENDBRANCH   3   7
BRANCH   1  19
ATOM     16  C2  CHE B   00     14.111  65.414   4.998  0.00  0.00    +0.063 A 
ATOM     17  C3  CHE B   00     14.591  65.516   6.298  0.00  0.00    +0.016 A 
ATOM     18  C4  CHE B   00     15.753  66.213   6.509  0.00  0.00    +0.012 A 
ATOM     19  C5  CHE B   00     16.461  66.816   5.476  0.00  0.00    +0.017 A 
ATOM     20  C21 CHE B   00     15.931  66.678   4.205  0.00  0.00    +0.012 A 
ATOM     21  C22 CHE B   00     14.781  65.993   3.958  0.00  0.00    +0.016 A 
BRANCH  16  23
ATOM     22  O1  CHE B   00     12.792  63.942   3.552  0.00  0.00    -0.241 OA
ATOM     23  C1  CHE B   00     12.884  64.686   4.722  0.00  0.00    +0.387 C 
ATOM     24  O2  CHE B   00     11.949  64.754   5.551  0.00  0.00    -0.241 OA
ENDBRANCH  16  23
ENDBRANCH   1  19
BRANCH   4  25
ATOM     25  C16 CHE B   00     20.180  69.260   7.653  0.00  0.00    +0.089 A 
ATOM     26  C17 CHE B   00     20.301  69.773   8.217  0.00  0.00    +0.030 A 
ATOM     27  C18 CHE B   00     21.112  70.340   9.178  0.00  0.00    +0.004 A 
ATOM     28  C19 CHE B   00     21.791  70.417   9.593  0.00  0.00    +0.020 A 
ATOM     29  C20 CHE B   00     21.648  69.892   9.006  0.00  0.00    +0.111 A 
ATOM     30  N2  CHE B   00     20.853  69.358   8.085  0.00  0.00    -0.253 NA
ENDBRANCH   4  25
TORSDOF 4
ENDMDL
MODEL 4
REMARK VINA RESULT:      -9.7      4.223      6.263
REMARK  Name = dock_mp/CHEMBL6/CHEMBL6250.pdb
REMARK  4 active torsions:
REMARK  status: ('A' for Active; 'I' for Inactive)
REMARK    1  A    between atoms: C1_2  and  C2_4
REMARK    2  A    between atoms: C5_7  and  C6_8
REMARK    3  A    between atoms: C7_10  and  C8_11
REMARK    4  A    between atoms: C15_20  and  C16_21
REMARK                            x       y       z     vdW  Elec       q    Type
REMARK                         _______ _______ _______ _____ _____    ______ ____
ROOT
ATOM      1  C6  CHE B   00     18.871  68.587   7.325  0.00  0.00    +0.139 A 
ATOM      2  N1  CHE B   00     20.049  68.860   6.735  0.00  0.00    -0.227 NA
ATOM      3  C7  CHE B   00     19.874  68.998   5.399  0.00  0.00    +0.099 A 
ATOM      4  C15 CHE B   00     18.537  68.803   5.153  0.00  0.00    +0.093 A 
ATOM      5  N3  CHE B   00     17.964  68.558   6.335  0.00  0.00    -0.336 N 
ATOM      6  H12 CHE B   00     16.934  68.365   6.485  0.00  0.00    +0.167 HD
ENDROOT
BRANCH   3   7
ATOM      7  C8  CHE B   00     20.976  69.295   4.514  0.00  0.00    +0.006 A 
ATOM      8  C9  CHE B   00     21.717  69.642   4.393  0.00  0.00    +0.014 A 
ATOM      9  C10 CHE B   00     22.747  69.905   3.517  0.00  0.00    +0.050 A 
ATOM     10  C11 CHE B   00     23.040  69.816   2.743  0.00  0.00    +0.166 A 
ATOM     11  O3  CHE B   00     23.991  70.013   1.788  0.00  0.00    -0.453 OA
ATOM     12  C12 CHE B   00     23.632  69.607   1.080  0.00  0.00    +0.466 C 
ATOM     13  O4  CHE B   00     22.785  69.446   1.977  0.00  0.00    -0.453 OA
ATOM     14  C13 CHE B   00     22.300  69.464   2.846  0.00  0.00    +0.167 A 
ATOM     15  C14 CHE B   00     21.279  69.209   3.732  0.00  0.00    +0.059 A 
ENDBRANCH   3   7
BRANCH   1  19
ATOM     16  C2  CHE B   00     18.449  67.995  11.478  0.00  0.00    +0.063 A 
ATOM     17  C3  CHE B   00     17.358  67.780  10.646  0.00  0.00    +0.016 A 
ATOM     18  C4  CHE B   00     17.519  67.979   9.298  0.00  0.00    +0.012 A 
ATOM     19  C5  CHE B   00     18.726  68.385   8.742  0.00  0.00    +0.017 A 
ATOM     20  C21 CHE B   00     19.774  68.583   9.624  0.00  0.00    +0.012 A 
ATOM     21  C22 CHE B   00     19.650  68.395  10.967  0.00  0.00    +0.016 A 
BRANCH  16  23
ATOM     22  O1  CHE B   00     17.648  66.682  13.384  0.00  0.00    -0.241 OA
ATOM     23  C1  CHE B   00     18.329  67.798  12.913  0.00  0.00    +0.387 C 
ATOM     24  O2  CHE B   00     18.844  68.643  13.678  0.00  0.00    -0.241 OA
ENDBRANCH  16  23
ENDBRANCH   1  19
BRANCH   4  25
ATOM     25  C16 CHE B   00     17.835  68.843   3.890  0.00  0.00    +0.089 A 
ATOM     26  C17 CHE B   00     17.809  68.906   3.121  0.00  0.00    +0.030 A 
ATOM     27  C18 CHE B   00     17.103  68.939   1.937  0.00  0.00    +0.004 A 
ATOM     28  C19 CHE B   00     16.437  68.912   1.495  0.00  0.00    +0.020 A 
ATOM     29  C20 CHE B   00     16.484  68.848   2.292  0.00  0.00    +0.111 A 
ATOM     30  N2  CHE B   00     17.180  68.819   3.422  0.00  0.00    -0.253 NA
ENDBRANCH   4  25
TORSDOF 4
ENDMDL
MODEL 5
REMARK VINA RESULT:      -9.6      3.264      9.857
REMARK  Name = dock_mp/CHEMBL6/CHEMBL6250.pdb
REMARK  4 active torsions:
REMARK  status: ('A' for Active; 'I' for Inactive)
REMARK    1  A    between atoms: C1_2  and  C2_4
REMARK    2  A    between atoms: C5_7  and  C6_8
REMARK    3  A    between atoms: C7_10  and  C8_11
REMARK    4  A    between atoms: C15_20  and  C16_21
REMARK                            x       y       z     vdW  Elec       q    Type
REMARK                         _______ _______ _______ _____ _____    ______ ____
ROOT
ATOM      1  C6  CHE B   00     17.934  68.088   8.538  0.00  0.00    +0.139 A 
ATOM      2  N1  CHE B   00     19.137  68.598   8.856  0.00  0.00    -0.227 NA
ATOM      3  C7  CHE B   00     19.348  68.484  10.189  0.00  0.00    +0.099 A 
ATOM      4  C15 CHE B   00     18.233  67.881  10.717  0.00  0.00    +0.093 A 
ATOM      5  N3  CHE B   00     17.402  67.657   9.694  0.00  0.00    -0.336 N 
ATOM      6  H12 CHE B   00     16.450  67.202   9.770  0.00  0.00    +0.167 HD
ENDROOT
BRANCH   3   7
ATOM      7  C8  CHE B   00     20.566  68.952  10.811  0.00  0.00    +0.006 A 
ATOM      8  C9  CHE B   00     21.114  68.900  11.428  0.00  0.00    +0.014 A 
ATOM      9  C10 CHE B   00     22.280  69.375  11.988  0.00  0.00    +0.050 A 
ATOM     10  C11 CHE B   00     22.910  69.914  11.926  0.00  0.00    +0.166 A 
ATOM     11  O3  CHE B   00     24.070  70.466  12.381  0.00  0.00    -0.453 OA
ATOM     12  C12 CHE B   00     24.241  71.081  11.760  0.00  0.00    +0.466 C 
ATOM     13  O4  CHE B   00     23.182  70.554  11.374  0.00  0.00    -0.453 OA
ATOM     14  C13 CHE B   00     22.373  69.979  11.302  0.00  0.00    +0.167 A 
ATOM     15  C14 CHE B   00     21.208  69.496  10.754  0.00  0.00    +0.059 A 
ENDBRANCH   3   7
BRANCH   1  19
ATOM     16  C2  CHE B   00     16.422  68.011   4.603  0.00  0.00    +0.063 A 
ATOM     17  C3  CHE B   00     17.796  68.033   4.804  0.00  0.00    +0.016 A 
ATOM     18  C4  CHE B   00     18.264  68.058   6.093  0.00  0.00    +0.012 A 
ATOM     19  C5  CHE B   00     17.418  68.062   7.195  0.00  0.00    +0.017 A 
ATOM     20  C21 CHE B   00     16.060  68.040   6.929  0.00  0.00    +0.012 A 
ATOM     21  C22 CHE B   00     15.560  68.015   5.663  0.00  0.00    +0.016 A 
BRANCH  16  23
ATOM     22  O1  CHE B   00     16.601  68.569   2.225  0.00  0.00    -0.241 OA
ATOM     23  C1  CHE B   00     15.875  67.984   3.256  0.00  0.00    +0.387 C 
ATOM     24  O2  CHE B   00     14.767  67.434   3.071  0.00  0.00    -0.241 OA
ENDBRANCH  16  23
ENDBRANCH   1  19
BRANCH   4  25
ATOM     25  C16 CHE B   00     17.957  67.534  12.092  0.00  0.00    +0.089 A 
ATOM     26  C17 CHE B   00     18.166  67.284  12.792  0.00  0.00    +0.030 A 
ATOM     27  C18 CHE B   00     17.863  66.963  14.098  0.00  0.00    +0.004 A 
ATOM     28  C19 CHE B   00     17.371  66.882  14.724  0.00  0.00    +0.020 A 
ATOM     29  C20 CHE B   00     17.173  67.140  13.992  0.00  0.00    +0.111 A 
ATOM     30  N2  CHE B   00     17.484  67.444  12.737  0.00  0.00    -0.253 NA
ENDBRANCH   4  25
TORSDOF 4
ENDMDL
MODEL 6
REMARK VINA RESULT:      -9.2      4.235      6.185
REMARK  Name = dock_mp/CHEMBL6/CHEMBL6250.pdb
REMARK  4 active torsions:
REMARK  status: ('A' for Active; 'I' for Inactive)
REMARK    1  A    between atoms: C1_2  and  C2_4
REMARK    2  A    between atoms: C5_7  and  C6_8
REMARK    3  A    between atoms: C7_10  and  C8_11
REMARK    4  A    between atoms: C15_20  and  C16_21
REMARK                            x       y       z     vdW  Elec       q    Type
REMARK                         _______ _______ _______ _____ _____    ______ ____
ROOT
ATOM      1  C6  CHE B   00     20.593  69.370   8.633  0.00  0.00    +0.139 A 
ATOM      2  N1  CHE B   00     20.450  69.278   7.298  0.00  0.00    -0.227 NA
ATOM      3  C7  CHE B   00     19.208  68.831   6.997  0.00  0.00    +0.099 A 
ATOM      4  C15 CHE B   00     18.556  68.638   8.190  0.00  0.00    +0.093 A 
ATOM      5  N3  CHE B   00     19.421  68.973   9.154  0.00  0.00    -0.336 N 
ATOM      6  H12 CHE B   00     19.221  68.935  10.192  0.00  0.00    +0.167 HD
ENDROOT
BRANCH   3   7
ATOM      7  C8  CHE B   00     18.779  68.636   5.631  0.00  0.00    +0.006 A 
ATOM      8  C9  CHE B   00     18.411  68.161   5.063  0.00  0.00    +0.014 A 
ATOM      9  C10 CHE B   00     18.018  68.015   3.750  0.00  0.00    +0.050 A 
ATOM     10  C11 CHE B   00     17.994  68.355   2.991  0.00  0.00    +0.166 A 
ATOM     11  O3  CHE B   00     17.655  68.326   1.672  0.00  0.00    -0.453 OA
ATOM     12  C12 CHE B   00     17.960  69.112   1.383  0.00  0.00    +0.466 C 
ATOM     13  O4  CHE B   00     18.254  69.104   2.592  0.00  0.00    -0.453 OA
ATOM     14  C13 CHE B   00     18.364  68.842   3.546  0.00  0.00    +0.167 A 
ATOM     15  C14 CHE B   00     18.750  68.974   4.859  0.00  0.00    +0.059 A 
ENDBRANCH   3   7
BRANCH   1  19
ATOM     16  C2  CHE B   00     24.141  70.680  10.494  0.00  0.00    +0.063 A 
ATOM     17  C3  CHE B   00     24.210  69.704   9.509  0.00  0.00    +0.016 A 
ATOM     18  C4  CHE B   00     23.043  69.293   8.918  0.00  0.00    +0.012 A 
ATOM     19  C5  CHE B   00     21.804  69.817   9.268  0.00  0.00    +0.017 A 
ATOM     20  C21 CHE B   00     21.802  70.786  10.256  0.00  0.00    +0.012 A 
ATOM     21  C22 CHE B   00     22.941  71.217  10.864  0.00  0.00    +0.016 A 
BRANCH  16  23
ATOM     22  O1  CHE B   00     25.394  71.176  12.541  0.00  0.00    -0.241 OA
ATOM     23  C1  CHE B   00     25.351  71.148  11.152  0.00  0.00    +0.387 C 
ATOM     24  O2  CHE B   00     26.315  71.512  10.442  0.00  0.00    -0.241 OA
ENDBRANCH  16  23
ENDBRANCH   1  19
BRANCH   4  25
ATOM     25  C16 CHE B   00     17.208  68.171   8.420  0.00  0.00    +0.089 A 
ATOM     26  C17 CHE B   00     16.466  68.278   8.603  0.00  0.00    +0.030 A 
ATOM     27  C18 CHE B   00     15.193  67.793   8.813  0.00  0.00    +0.004 A 
ATOM     28  C19 CHE B   00     14.638  67.217   8.847  0.00  0.00    +0.020 A 
ATOM     29  C20 CHE B   00     15.412  67.124   8.659  0.00  0.00    +0.111 A 
ATOM     30  N2  CHE B   00     16.632  67.610   8.461  0.00  0.00    -0.253 NA
ENDBRANCH   4  25
TORSDOF 4
ENDMDL
