MODEL 1
REMARK VINA RESULT:     -10.6      0.000      0.000
REMARK  Name = dock_mp/CHEMBL6/CHEMBL609582.pdb
REMARK  4 active torsions:
REMARK  status: ('A' for Active; 'I' for Inactive)
REMARK    1  A    between atoms: C1_1  and  N1_2
REMARK    2  A    between atoms: C2_3  and  C3_4
REMARK    3  A    between atoms: C11_14  and  C12_15
REMARK    4  A    between atoms: N4_22  and  C17_23
REMARK                            x       y       z     vdW  Elec       q    Type
REMARK                         _______ _______ _______ _____ _____    ______ ____
ROOT
ATOM      1  C1  CHE B   05     18.723  68.872   3.679  0.00  0.00    +0.171 C 
ATOM      2  N1  CHE B   05     16.614  67.017   6.627  0.00  0.00    -0.283 N 
ATOM      3  C2  CHE B   05     17.119  67.083   6.883  0.00  0.00    +0.078 A 
ATOM      4  C11 CHE B   05     16.960  67.852   4.794  0.00  0.00    +0.076 A 
ATOM      5  C16 CHE B   05     16.264  68.156   3.438  0.00  0.00    +0.275 A 
ATOM      6  O2  CHE B   05     13.783  66.253   6.198  0.00  0.00    -0.266 OA
ATOM      7  N4  CHE B   05     15.453  66.866   6.040  0.00  0.00    -0.252 N 
ATOM      8  C17 CHE B   05     16.397  68.964   1.498  0.00  0.00    +0.174 C 
ENDROOT
BRANCH   3   9
ATOM      9  C3  CHE B   05     19.095  68.130   5.876  0.00  0.00    +0.003 A 
ATOM     10  C4  CHE B   05     18.576  67.926   7.868  0.00  0.00    +0.012 A 
ATOM     11  C5  CHE B   05     18.676  68.080  10.280  0.00  0.00    +0.030 A 
ATOM     12  C6  CHE B   05     22.965  70.178   3.806  0.00  0.00    +0.089 A 
ATOM     13  N2  CHE B   05     24.401  70.961   3.605  0.00  0.00    -0.252 NA
ATOM     14  C7  CHE B   05     21.360  69.585  10.923  0.00  0.00    +0.131 A 
ATOM     15  C8  CHE B   05     20.536  69.157  11.538  0.00  0.00    +0.131 A 
ATOM     16  N3  CHE B   05     20.923  69.236   8.284  0.00  0.00    -0.252 NA
ATOM     17  C9  CHE B   05     22.119  69.736   4.405  0.00  0.00    +0.090 A 
ATOM     18  C10 CHE B   05     21.561  69.365   2.856  0.00  0.00    +0.040 A 
ENDBRANCH   3   9
BRANCH   4  19
ATOM     19  C12 CHE B   05     15.990  66.540   7.315  0.00  0.00    +0.027 A 
ATOM     20  C13 CHE B   05     17.866  69.761   2.593  0.00  0.00    +0.050 A 
ATOM     21  C14 CHE B   05     17.556  69.201   3.367  0.00  0.00    +0.195 A 
ATOM     22  O1  CHE B   05     15.683  65.945   8.071  0.00  0.00    -0.470 OA
ATOM     23  C15 CHE B   05     16.024  66.215   7.142  0.00  0.00    +0.203 A 
ENDBRANCH   4  19
TORSDOF 2
ENDMDL
MODEL 2
REMARK VINA RESULT:     -10.5      3.429      6.136
REMARK  Name = dock_mp/CHEMBL6/CHEMBL609582.pdb
REMARK  4 active torsions:
REMARK  status: ('A' for Active; 'I' for Inactive)
REMARK    1  A    between atoms: C1_1  and  N1_2
REMARK    2  A    between atoms: C2_3  and  C3_4
REMARK    3  A    between atoms: C11_14  and  C12_15
REMARK    4  A    between atoms: N4_22  and  C17_23
REMARK                            x       y       z     vdW  Elec       q    Type
REMARK                         _______ _______ _______ _____ _____    ______ ____
ROOT
ATOM      1  C1  CHE B   05     17.219  68.520   4.214  0.00  0.00    +0.171 C 
ATOM      2  N1  CHE B   05     21.171  69.213   3.521  0.00  0.00    -0.283 N 
ATOM      3  C2  CHE B   05     21.189  69.018   4.056  0.00  0.00    +0.078 A 
ATOM      4  C11 CHE B   05     19.169  69.140   3.116  0.00  0.00    +0.076 A 
ATOM      5  C16 CHE B   05     18.136  69.440   1.994  0.00  0.00    +0.275 A 
ATOM      6  O2  CHE B   05     22.075  70.277   0.907  0.00  0.00    -0.266 OA
ATOM      7  N4  CHE B   05     21.128  69.662   2.291  0.00  0.00    -0.252 N 
ATOM      8  C17 CHE B   05     16.127  69.449   1.363  0.00  0.00    +0.174 C 
ENDROOT
BRANCH   3   9
ATOM      9  C3  CHE B   05     19.247  68.315   5.379  0.00  0.00    +0.003 A 
ATOM     10  C4  CHE B   05     20.970  69.293   5.974  0.00  0.00    +0.012 A 
ATOM     11  C5  CHE B   05     22.600  70.389   7.386  0.00  0.00    +0.030 A 
ATOM     12  C6  CHE B   05     15.374  66.894   7.916  0.00  0.00    +0.089 A 
ATOM     13  N2  CHE B   05     14.336  66.627   9.168  0.00  0.00    -0.252 NA
ATOM     14  C7  CHE B   05     21.374  70.358  10.280  0.00  0.00    +0.131 A 
ATOM     15  C8  CHE B   05     22.320  70.740   9.835  0.00  0.00    +0.131 A 
ATOM     16  N3  CHE B   05     19.794  69.199   8.426  0.00  0.00    -0.252 NA
ATOM     17  C9  CHE B   05     16.324  67.272   7.442  0.00  0.00    +0.090 A 
ATOM     18  C10 CHE B   05     15.586  66.628   6.067  0.00  0.00    +0.040 A 
ENDBRANCH   3   9
BRANCH   4  19
ATOM     19  C12 CHE B   05     22.155  69.424   3.245  0.00  0.00    +0.027 A 
ATOM     20  C13 CHE B   05     16.277  68.189   2.900  0.00  0.00    +0.050 A 
ATOM     21  C14 CHE B   05     17.253  68.421   2.961  0.00  0.00    +0.195 A 
ATOM     22  O1  CHE B   05     23.125  69.695   3.311  0.00  0.00    -0.470 OA
ATOM     23  C15 CHE B   05     22.104  69.787   3.292  0.00  0.00    +0.203 A 
ENDBRANCH   4  19
TORSDOF 2
ENDMDL
MODEL 3
REMARK VINA RESULT:     -10.3      3.155      5.965
REMARK  Name = dock_mp/CHEMBL6/CHEMBL609582.pdb
REMARK  4 active torsions:
REMARK  status: ('A' for Active; 'I' for Inactive)
REMARK    1  A    between atoms: C1_1  and  N1_2
REMARK    2  A    between atoms: C2_3  and  C3_4
REMARK    3  A    between atoms: C11_14  and  C12_15
REMARK    4  A    between atoms: N4_22  and  C17_23
REMARK                            x       y       z     vdW  Elec       q    Type
REMARK                         _______ _______ _______ _____ _____    ______ ____
ROOT
ATOM      1  C1  CHE B   05     15.896  66.807   6.688  0.00  0.00    +0.171 C 
ATOM      2  N1  CHE B   05     17.767  68.890   3.732  0.00  0.00    -0.283 N 
ATOM      3  C2  CHE B   05     18.055  69.072   4.189  0.00  0.00    +0.078 A 
ATOM      4  C11 CHE B   05     16.428  67.593   4.569  0.00  0.00    +0.076 A 
ATOM      5  C16 CHE B   05     15.263  66.631   4.201  0.00  0.00    +0.275 A 
ATOM      6  O2  CHE B   05     16.923  68.579   0.908  0.00  0.00    -0.266 OA
ATOM      7  N4  CHE B   05     17.106  68.471   2.681  0.00  0.00    -0.252 N 
ATOM      8  C17 CHE B   05     13.803  65.257   4.845  0.00  0.00    +0.174 C 
ENDROOT
BRANCH   3   9
ATOM      9  C3  CHE B   05     17.644  68.363   6.501  0.00  0.00    +0.003 A 
ATOM     10  C4  CHE B   05     19.370  69.101   5.629  0.00  0.00    +0.012 A 
ATOM     11  C5  CHE B   05     21.654  69.851   5.370  0.00  0.00    +0.030 A 
ATOM     12  C6  CHE B   05     16.749  66.944  11.044  0.00  0.00    +0.089 A 
ATOM     13  N2  CHE B   05     16.948  66.598  12.643  0.00  0.00    -0.252 NA
ATOM     14  C7  CHE B   05     22.979  69.531   8.202  0.00  0.00    +0.131 A 
ATOM     15  C8  CHE B   05     23.333  69.889   7.209  0.00  0.00    +0.131 A 
ATOM     16  N3  CHE B   05     20.391  68.774   8.129  0.00  0.00    -0.252 NA
ATOM     17  C9  CHE B   05     17.082  67.301  10.028  0.00  0.00    +0.090 A 
ATOM     18  C10 CHE B   05     15.482  66.916   9.655  0.00  0.00    +0.040 A 
ENDBRANCH   3   9
BRANCH   4  19
ATOM     19  C12 CHE B   05     18.180  69.375   2.905  0.00  0.00    +0.027 A 
ATOM     20  C13 CHE B   05     15.187  65.361   6.239  0.00  0.00    +0.050 A 
ATOM     21  C14 CHE B   05     15.665  66.047   5.683  0.00  0.00    +0.195 A 
ATOM     22  O1  CHE B   05     18.628  70.088   2.348  0.00  0.00    -0.470 OA
ATOM     23  C15 CHE B   05     17.902  69.620   2.901  0.00  0.00    +0.203 A 
ENDBRANCH   4  19
TORSDOF 2
ENDMDL
MODEL 4
REMARK VINA RESULT:     -10.3      3.127      5.955
REMARK  Name = dock_mp/CHEMBL6/CHEMBL609582.pdb
REMARK  4 active torsions:
REMARK  status: ('A' for Active; 'I' for Inactive)
REMARK    1  A    between atoms: C1_1  and  N1_2
REMARK    2  A    between atoms: C2_3  and  C3_4
REMARK    3  A    between atoms: C11_14  and  C12_15
REMARK    4  A    between atoms: N4_22  and  C17_23
REMARK                            x       y       z     vdW  Elec       q    Type
REMARK                         _______ _______ _______ _____ _____    ______ ____
ROOT
ATOM      1  C1  CHE B   05     17.183  67.760   4.258  0.00  0.00    +0.171 C 
ATOM      2  N1  CHE B   05     20.233  69.235   6.517  0.00  0.00    -0.283 N 
ATOM      3  C2  CHE B   05     19.949  68.931   6.907  0.00  0.00    +0.078 A 
ATOM      4  C11 CHE B   05     19.106  68.924   4.841  0.00  0.00    +0.076 A 
ATOM      5  C16 CHE B   05     19.031  69.291   3.332  0.00  0.00    +0.275 A 
ATOM      6  O2  CHE B   05     22.289  70.991   5.304  0.00  0.00    -0.266 OA
ATOM      7  N4  CHE B   05     20.884  69.934   5.621  0.00  0.00    -0.252 N 
ATOM      8  C17 CHE B   05     18.024  69.109   1.491  0.00  0.00    +0.174 C 
ENDROOT
BRANCH   3   9
ATOM      9  C3  CHE B   05     17.907  67.638   6.489  0.00  0.00    +0.003 A 
ATOM     10  C4  CHE B   05     18.798  68.162   8.281  0.00  0.00    +0.012 A 
ATOM     11  C5  CHE B   05     19.200  68.358  10.658  0.00  0.00    +0.030 A 
ATOM     12  C6  CHE B   05     13.887  65.096   5.575  0.00  0.00    +0.089 A 
ATOM     13  N2  CHE B   05     12.512  64.213   5.788  0.00  0.00    -0.252 NA
ATOM     14  C7  CHE B   05     16.840  66.817  12.048  0.00  0.00    +0.131 A 
ATOM     15  C8  CHE B   05     17.731  67.377  12.412  0.00  0.00    +0.131 A 
ATOM     16  N3  CHE B   05     16.703  66.798   9.354  0.00  0.00    -0.252 NA
ATOM     17  C9  CHE B   05     14.796  65.668   5.918  0.00  0.00    +0.090 A 
ATOM     18  C10 CHE B   05     14.996  65.838   4.250  0.00  0.00    +0.040 A 
ENDBRANCH   3   9
BRANCH   4  19
ATOM     19  C12 CHE B   05     21.050  69.663   7.007  0.00  0.00    +0.027 A 
ATOM     20  C13 CHE B   05     16.752  68.672   2.914  0.00  0.00    +0.050 A 
ATOM     21  C14 CHE B   05     17.485  68.818   3.587  0.00  0.00    +0.195 A 
ATOM     22  O1  CHE B   05     21.806  69.780   7.665  0.00  0.00    -0.470 OA
ATOM     23  C15 CHE B   05     21.273  69.398   6.876  0.00  0.00    +0.203 A 
ENDBRANCH   4  19
TORSDOF 2
ENDMDL
MODEL 5
REMARK VINA RESULT:      -9.8      2.718      5.964
REMARK  Name = dock_mp/CHEMBL6/CHEMBL609582.pdb
REMARK  4 active torsions:
REMARK  status: ('A' for Active; 'I' for Inactive)
REMARK    1  A    between atoms: C1_1  and  N1_2
REMARK    2  A    between atoms: C2_3  and  C3_4
REMARK    3  A    between atoms: C11_14  and  C12_15
REMARK    4  A    between atoms: N4_22  and  C17_23
REMARK                            x       y       z     vdW  Elec       q    Type
REMARK                         _______ _______ _______ _____ _____    ______ ____
ROOT
ATOM      1  C1  CHE B   05     19.285  68.675   7.179  0.00  0.00    +0.171 C 
ATOM      2  N1  CHE B   05     18.079  69.252   3.333  0.00  0.00    -0.283 N 
ATOM      3  C2  CHE B   05     18.576  69.531   3.332  0.00  0.00    +0.078 A 
ATOM      4  C11 CHE B   05     17.984  68.572   5.258  0.00  0.00    +0.076 A 
ATOM      5  C16 CHE B   05     17.082  67.753   6.223  0.00  0.00    +0.275 A 
ATOM      6  O2  CHE B   05     15.510  68.124   2.378  0.00  0.00    -0.266 OA
ATOM      7  N4  CHE B   05     16.937  68.611   3.336  0.00  0.00    -0.252 N 
ATOM      8  C17 CHE B   05     16.778  66.955   8.148  0.00  0.00    +0.174 C 
ENDROOT
BRANCH   3   9
ATOM      9  C3  CHE B   05     20.086  69.751   5.252  0.00  0.00    +0.003 A 
ATOM     10  C4  CHE B   05     20.518  69.675   3.230  0.00  0.00    +0.012 A 
ATOM     11  C5  CHE B   05     21.777  69.661   1.165  0.00  0.00    +0.030 A 
ATOM     12  C6  CHE B   05     22.996  70.184   9.099  0.00  0.00    +0.089 A 
ATOM     13  N2  CHE B   05     24.348  70.338  10.028  0.00  0.00    -0.252 NA
ATOM     14  C7  CHE B   05     24.793  69.939   2.007  0.00  0.00    +0.131 A 
ATOM     15  C8  CHE B   05     24.257  69.846   1.035  0.00  0.00    +0.131 A 
ATOM     16  N3  CHE B   05     23.086  69.920   4.096  0.00  0.00    -0.252 NA
ATOM     17  C9  CHE B   05     22.430  70.088   8.129  0.00  0.00    +0.090 A 
ATOM     18  C10 CHE B   05     21.124  70.044   9.197  0.00  0.00    +0.040 A 
ENDBRANCH   3   9
BRANCH   4  19
ATOM     19  C12 CHE B   05     17.682  69.342   2.372  0.00  0.00    +0.027 A 
ATOM     20  C13 CHE B   05     18.700  67.303   7.939  0.00  0.00    +0.050 A 
ATOM     21  C14 CHE B   05     18.514  67.662   7.019  0.00  0.00    +0.195 A 
ATOM     22  O1  CHE B   05     17.471  69.731   1.464  0.00  0.00    -0.470 OA
ATOM     23  C15 CHE B   05     17.457  69.614   2.483  0.00  0.00    +0.203 A 
ENDBRANCH   4  19
TORSDOF 2
ENDMDL
MODEL 6
REMARK VINA RESULT:      -9.8      1.521      2.124
REMARK  Name = dock_mp/CHEMBL6/CHEMBL609582.pdb
REMARK  4 active torsions:
REMARK  status: ('A' for Active; 'I' for Inactive)
REMARK    1  A    between atoms: C1_1  and  N1_2
REMARK    2  A    between atoms: C2_3  and  C3_4
REMARK    3  A    between atoms: C11_14  and  C12_15
REMARK    4  A    between atoms: N4_22  and  C17_23
REMARK                            x       y       z     vdW  Elec       q    Type
REMARK                         _______ _______ _______ _____ _____    ______ ____
ROOT
ATOM      1  C1  CHE B   05     19.438  68.687   4.483  0.00  0.00    +0.171 C 
ATOM      2  N1  CHE B   05     18.346  67.407   8.190  0.00  0.00    -0.283 N 
ATOM      3  C2  CHE B   05     18.876  67.590   8.293  0.00  0.00    +0.078 A 
ATOM      4  C11 CHE B   05     18.148  67.790   6.193  0.00  0.00    +0.076 A 
ATOM      5  C16 CHE B   05     17.139  67.666   5.017  0.00  0.00    +0.275 A 
ATOM      6  O2  CHE B   05     15.656  66.251   8.649  0.00  0.00    -0.266 OA
ATOM      7  N4  CHE B   05     17.128  66.986   7.955  0.00  0.00    -0.252 N 
ATOM      8  C17 CHE B   05     16.718  67.972   2.976  0.00  0.00    +0.174 C 
ENDROOT
BRANCH   3   9
ATOM      9  C3  CHE B   05     20.389  68.565   6.626  0.00  0.00    +0.003 A 
ATOM     10  C4  CHE B   05     20.420  68.713   8.690  0.00  0.00    +0.012 A 
ATOM     11  C5  CHE B   05     21.108  69.340  10.922  0.00  0.00    +0.030 A 
ATOM     12  C6  CHE B   05     23.328  70.450   3.271  0.00  0.00    +0.089 A 
ATOM     13  N2  CHE B   05     24.559  71.283   2.559  0.00  0.00    -0.252 NA
ATOM     14  C7  CHE B   05     23.662  71.134  10.551  0.00  0.00    +0.131 A 
ATOM     15  C8  CHE B   05     23.079  70.774  11.429  0.00  0.00    +0.131 A 
ATOM     16  N3  CHE B   05     22.617  70.249   8.227  0.00  0.00    -0.252 NA
ATOM     17  C9  CHE B   05     22.722  70.072   4.143  0.00  0.00    +0.090 A 
ATOM     18  C10 CHE B   05     21.839  69.367   2.888  0.00  0.00    +0.040 A 
ENDBRANCH   3   9
BRANCH   4  19
ATOM     19  C12 CHE B   05     17.971  67.051   9.097  0.00  0.00    +0.027 A 
ATOM     20  C13 CHE B   05     18.214  69.172   3.473  0.00  0.00    +0.050 A 
ATOM     21  C14 CHE B   05     18.177  68.794   4.403  0.00  0.00    +0.195 A 
ATOM     22  O1  CHE B   05     17.941  66.635  10.017  0.00  0.00    -0.470 OA
ATOM     23  C15 CHE B   05     18.032  66.701   8.997  0.00  0.00    +0.203 A 
ENDBRANCH   4  19
TORSDOF 2
ENDMDL
MODEL 7
REMARK VINA RESULT:      -9.5      2.069      2.583
REMARK  Name = dock_mp/CHEMBL6/CHEMBL609582.pdb
REMARK  4 active torsions:
REMARK  status: ('A' for Active; 'I' for Inactive)
REMARK    1  A    between atoms: C1_1  and  N1_2
REMARK    2  A    between atoms: C2_3  and  C3_4
REMARK    3  A    between atoms: C11_14  and  C12_15
REMARK    4  A    between atoms: N4_22  and  C17_23
REMARK                            x       y       z     vdW  Elec       q    Type
REMARK                         _______ _______ _______ _____ _____    ______ ____
ROOT
ATOM      1  C1  CHE B   05     18.888  68.565   4.758  0.00  0.00    +0.171 C 
ATOM      2  N1  CHE B   05     15.648  66.375   5.890  0.00  0.00    -0.283 N 
ATOM      3  C2  CHE B   05     15.918  66.431   6.389  0.00  0.00    +0.078 A 
ATOM      4  C11 CHE B   05     16.889  67.391   4.624  0.00  0.00    +0.076 A 
ATOM      5  C16 CHE B   05     17.046  67.802   3.134  0.00  0.00    +0.275 A 
ATOM      6  O2  CHE B   05     13.607  65.570   3.898  0.00  0.00    -0.266 OA
ATOM      7  N4  CHE B   05     15.028  66.245   4.744  0.00  0.00    -0.252 N 
ATOM      8  C17 CHE B   05     18.173  68.795   1.657  0.00  0.00    +0.174 C 
ENDROOT
BRANCH   3   9
ATOM      9  C3  CHE B   05     18.031  67.629   6.734  0.00  0.00    +0.003 A 
ATOM     10  C4  CHE B   05     16.715  66.839   8.122  0.00  0.00    +0.012 A 
ATOM     11  C5  CHE B   05     15.738  66.224  10.247  0.00  0.00    +0.030 A 
ATOM     12  C6  CHE B   05     22.211  70.002   7.324  0.00  0.00    +0.089 A 
ATOM     13  N2  CHE B   05     23.512  70.726   8.029  0.00  0.00    -0.252 NA
ATOM     14  C7  CHE B   05     17.722  67.298  12.435  0.00  0.00    +0.131 A 
ATOM     15  C8  CHE B   05     16.756  66.745  12.459  0.00  0.00    +0.131 A 
ATOM     16  N3  CHE B   05     18.515  67.820   9.910  0.00  0.00    -0.252 NA
ATOM     17  C9  CHE B   05     21.232  69.442   7.321  0.00  0.00    +0.090 A 
ATOM     18  C10 CHE B   05     21.443  69.608   5.654  0.00  0.00    +0.040 A 
ENDBRANCH   3   9
BRANCH   4  19
ATOM     19  C12 CHE B   05     14.786  65.816   6.077  0.00  0.00    +0.027 A 
ATOM     20  C13 CHE B   05     18.700  69.529   3.415  0.00  0.00    +0.050 A 
ATOM     21  C14 CHE B   05     18.059  68.888   3.849  0.00  0.00    +0.195 A 
ATOM     22  O1  CHE B   05     14.162  65.142   6.497  0.00  0.00    -0.470 OA
ATOM     23  C15 CHE B   05     14.945  65.510   5.945  0.00  0.00    +0.203 A 
ENDBRANCH   4  19
TORSDOF 2
ENDMDL
