MODEL 1
REMARK VINA RESULT:     -11.2      0.000      0.000
REMARK  Name = dock_mp/CHEMBL6/CHEMBL6252.pdb
REMARK  4 active torsions:
REMARK  status: ('A' for Active; 'I' for Inactive)
REMARK    1  A    between atoms: C1_2  and  C2_4
REMARK    2  A    between atoms: C5_7  and  C6_8
REMARK    3  A    between atoms: C7_10  and  C8_11
REMARK    4  A    between atoms: C14_18  and  C15_19
REMARK                            x       y       z     vdW  Elec       q    Type
REMARK                         _______ _______ _______ _____ _____    ______ ____
ROOT
ATOM      1  C6  CHE B   02     16.809  67.093   8.324  0.00  0.00    +0.139 A 
ATOM      2  N1  CHE B   02     16.124  66.170   7.750  0.00  0.00    -0.227 NA
ATOM      3  C7  CHE B   02     15.915  66.246   6.487  0.00  0.00    +0.097 A 
ATOM      4  C14 CHE B   02     16.508  67.278   6.271  0.00  0.00    +0.074 A 
ATOM      5  N3  CHE B   02     17.045  67.775   7.411  0.00  0.00    -0.337 N 
ATOM      6  H11 CHE B   02     17.564  68.574   7.537  0.00  0.00    +0.167 HD
ENDROOT
BRANCH   3   7
ATOM      7  C8  CHE B   02     15.216  65.431   5.519  0.00  0.00    +0.003 A 
ATOM      8  C9  CHE B   02     14.875  65.009   4.933  0.00  0.00    +0.013 A 
ATOM      9  C10 CHE B   02     14.222  64.246   4.020  0.00  0.00    +0.039 A 
ATOM     10  C11 CHE B   02     13.901  63.893   3.680  0.00  0.00    +0.123 A 
ATOM     11  F1  CHE B   02     13.250  63.132   2.768  0.00  0.00    -0.205 F 
ATOM     12  C12 CHE B   02     14.239  64.310   4.260  0.00  0.00    +0.039 A 
ATOM     13  C13 CHE B   02     14.904  65.088   5.192  0.00  0.00    +0.013 A 
ENDBRANCH   3   7
BRANCH   1  17
ATOM     14  C2  CHE B   02     17.950  67.677  12.259  0.00  0.00    +0.063 A 
ATOM     15  C3  CHE B   02     16.917  67.012  11.852  0.00  0.00    +0.016 A 
ATOM     16  C4  CHE B   02     16.556  66.829  10.558  0.00  0.00    +0.012 A 
ATOM     17  C5  CHE B   02     17.214  67.301   9.688  0.00  0.00    +0.017 A 
ATOM     18  C20 CHE B   02     18.250  67.968  10.101  0.00  0.00    +0.012 A 
ATOM     19  C21 CHE B   02     18.611  68.151  11.401  0.00  0.00    +0.016 A 
BRANCH  14  21
ATOM     20  O1  CHE B   02     17.763  67.366  14.507  0.00  0.00    -0.241 OA
ATOM     21  C1  CHE B   02     18.353  67.885  13.613  0.00  0.00    +0.387 C 
ATOM     22  O2  CHE B   02     19.258  68.550  13.980  0.00  0.00    -0.241 OA
ENDBRANCH  14  21
ENDBRANCH   1  17
BRANCH   4  23
ATOM     23  C15 CHE B   02     16.512  67.696   5.014  0.00  0.00    +0.003 A 
ATOM     24  C16 CHE B   02     16.652  67.840   4.861  0.00  0.00    +0.030 A 
ATOM     25  C17 CHE B   02     16.643  68.242   3.627  0.00  0.00    +0.111 A 
ATOM     26  N2  CHE B   02     16.502  68.489   2.594  0.00  0.00    -0.263 NA
ATOM     27  C18 CHE B   02     16.367  68.355   2.729  0.00  0.00    +0.111 A 
ATOM     28  C19 CHE B   02     16.370  67.956   3.943  0.00  0.00    +0.030 A 
ENDBRANCH   4  23
TORSDOF 4
ENDMDL
MODEL 2
REMARK VINA RESULT:     -10.9      1.675      3.147
REMARK  Name = dock_mp/CHEMBL6/CHEMBL6252.pdb
REMARK  4 active torsions:
REMARK  status: ('A' for Active; 'I' for Inactive)
REMARK    1  A    between atoms: C1_2  and  C2_4
REMARK    2  A    between atoms: C5_7  and  C6_8
REMARK    3  A    between atoms: C7_10  and  C8_11
REMARK    4  A    between atoms: C14_18  and  C15_19
REMARK                            x       y       z     vdW  Elec       q    Type
REMARK                         _______ _______ _______ _____ _____    ______ ____
ROOT
ATOM      1  C6  CHE B   02     16.812  67.057   8.363  0.00  0.00    +0.139 A 
ATOM      2  N1  CHE B   02     17.087  67.702   7.286  0.00  0.00    -0.227 NA
ATOM      3  C7  CHE B   02     16.591  67.296   6.175  0.00  0.00    +0.097 A 
ATOM      4  C14 CHE B   02     15.974  66.343   6.593  0.00  0.00    +0.074 A 
ATOM      5  N3  CHE B   02     16.126  66.220   7.933  0.00  0.00    -0.337 N 
ATOM      6  H11 CHE B   02     15.754  65.562   8.526  0.00  0.00    +0.167 HD
ENDROOT
BRANCH   3   7
ATOM      7  C8  CHE B   02     16.668  67.741   4.802  0.00  0.00    +0.003 A 
ATOM      8  C9  CHE B   02     16.641  68.011   4.051  0.00  0.00    +0.013 A 
ATOM      9  C10 CHE B   02     16.707  68.431   2.762  0.00  0.00    +0.039 A 
ATOM     10  C11 CHE B   02     16.802  68.588   2.204  0.00  0.00    +0.123 A 
ATOM     11  F1  CHE B   02     16.867  69.007   0.919  0.00  0.00    -0.205 F 
ATOM     12  C12 CHE B   02     16.829  68.321   2.949  0.00  0.00    +0.039 A 
ATOM     13  C13 CHE B   02     16.762  67.892   4.263  0.00  0.00    +0.013 A 
ENDBRANCH   3   7
BRANCH   1  17
ATOM     14  C2  CHE B   02     17.890  67.581  12.323  0.00  0.00    +0.063 A 
ATOM     15  C3  CHE B   02     16.829  66.977  11.893  0.00  0.00    +0.016 A 
ATOM     16  C4  CHE B   02     16.489  66.813  10.590  0.00  0.00    +0.012 A 
ATOM     17  C5  CHE B   02     17.195  67.244   9.735  0.00  0.00    +0.017 A 
ATOM     18  C20 CHE B   02     18.258  67.849  10.174  0.00  0.00    +0.012 A 
ATOM     19  C21 CHE B   02     18.598  68.013  11.482  0.00  0.00    +0.016 A 
BRANCH  14  21
ATOM     20  O1  CHE B   02     17.609  67.318  14.567  0.00  0.00    -0.241 OA
ATOM     21  C1  CHE B   02     18.272  67.767  13.687  0.00  0.00    +0.387 C 
ATOM     22  O2  CHE B   02     19.225  68.348  14.073  0.00  0.00    -0.241 OA
ENDBRANCH  14  21
ENDBRANCH   1  17
BRANCH   4  23
ATOM     23  C15 CHE B   02     15.302  65.642   5.692  0.00  0.00    +0.003 A 
ATOM     24  C16 CHE B   02     15.133  65.456   5.684  0.00  0.00    +0.030 A 
ATOM     25  C17 CHE B   02     14.481  64.777   4.790  0.00  0.00    +0.111 A 
ATOM     26  N2  CHE B   02     14.019  64.305   3.946  0.00  0.00    -0.263 NA
ATOM     27  C18 CHE B   02     14.175  64.478   3.945  0.00  0.00    +0.111 A 
ATOM     28  C19 CHE B   02     14.820  65.150   4.821  0.00  0.00    +0.030 A 
ENDBRANCH   4  23
TORSDOF 4
ENDMDL
MODEL 3
REMARK VINA RESULT:      -9.7      2.526      3.955
REMARK  Name = dock_mp/CHEMBL6/CHEMBL6252.pdb
REMARK  4 active torsions:
REMARK  status: ('A' for Active; 'I' for Inactive)
REMARK    1  A    between atoms: C1_2  and  C2_4
REMARK    2  A    between atoms: C5_7  and  C6_8
REMARK    3  A    between atoms: C7_10  and  C8_11
REMARK    4  A    between atoms: C14_18  and  C15_19
REMARK                            x       y       z     vdW  Elec       q    Type
REMARK                         _______ _______ _______ _____ _____    ______ ____
ROOT
ATOM      1  C6  CHE B   02     18.814  67.855   8.637  0.00  0.00    +0.139 A 
ATOM      2  N1  CHE B   02     18.824  68.235   7.409  0.00  0.00    -0.227 NA
ATOM      3  C7  CHE B   02     17.884  67.842   6.630  0.00  0.00    +0.097 A 
ATOM      4  C14 CHE B   02     17.257  67.181   7.426  0.00  0.00    +0.074 A 
ATOM      5  N3  CHE B   02     17.847  67.206   8.645  0.00  0.00    -0.337 N 
ATOM      6  H11 CHE B   02     17.572  66.775   9.459  0.00  0.00    +0.167 HD
ENDROOT
BRANCH   3   7
ATOM      7  C8  CHE B   02     17.563  68.051   5.236  0.00  0.00    +0.003 A 
ATOM      8  C9  CHE B   02     17.356  68.099   4.467  0.00  0.00    +0.013 A 
ATOM      9  C10 CHE B   02     17.052  68.289   3.158  0.00  0.00    +0.039 A 
ATOM     10  C11 CHE B   02     16.951  68.435   2.598  0.00  0.00    +0.123 A 
ATOM     11  F1  CHE B   02     16.648  68.624   1.293  0.00  0.00    -0.205 F 
ATOM     12  C12 CHE B   02     17.156  68.388   3.361  0.00  0.00    +0.039 A 
ATOM     13  C13 CHE B   02     17.466  68.194   4.696  0.00  0.00    +0.013 A 
ENDBRANCH   3   7
BRANCH   1  17
ATOM     14  C2  CHE B   02     21.376  68.582  11.804  0.00  0.00    +0.063 A 
ATOM     15  C3  CHE B   02     21.722  68.284  10.593  0.00  0.00    +0.016 A 
ATOM     16  C4  CHE B   02     20.870  68.048   9.565  0.00  0.00    +0.012 A 
ATOM     17  C5  CHE B   02     19.696  68.109   9.743  0.00  0.00    +0.017 A 
ATOM     18  C20 CHE B   02     19.354  68.408  10.961  0.00  0.00    +0.012 A 
ATOM     19  C21 CHE B   02     20.211  68.644  11.992  0.00  0.00    +0.016 A 
BRANCH  14  21
ATOM     20  O1  CHE B   02     23.225  69.504  12.762  0.00  0.00    -0.241 OA
ATOM     21  C1  CHE B   02     22.251  68.834  12.904  0.00  0.00    +0.387 C 
ATOM     22  O2  CHE B   02     22.120  68.436  14.008  0.00  0.00    -0.241 OA
ENDBRANCH  14  21
ENDBRANCH   1  17
BRANCH   4  23
ATOM     23  C15 CHE B   02     16.165  66.592   6.963  0.00  0.00    +0.003 A 
ATOM     24  C16 CHE B   02     15.981  66.441   7.045  0.00  0.00    +0.030 A 
ATOM     25  C17 CHE B   02     14.914  65.869   6.578  0.00  0.00    +0.111 A 
ATOM     26  N2  CHE B   02     14.070  65.466   6.055  0.00  0.00    -0.263 NA
ATOM     27  C18 CHE B   02     14.237  65.605   5.971  0.00  0.00    +0.111 A 
ATOM     28  C19 CHE B   02     15.289  66.171   6.425  0.00  0.00    +0.030 A 
ENDBRANCH   4  23
TORSDOF 4
ENDMDL
MODEL 4
REMARK VINA RESULT:      -9.3      5.407      9.336
REMARK  Name = dock_mp/CHEMBL6/CHEMBL6252.pdb
REMARK  4 active torsions:
REMARK  status: ('A' for Active; 'I' for Inactive)
REMARK    1  A    between atoms: C1_2  and  C2_4
REMARK    2  A    between atoms: C5_7  and  C6_8
REMARK    3  A    between atoms: C7_10  and  C8_11
REMARK    4  A    between atoms: C14_18  and  C15_19
REMARK                            x       y       z     vdW  Elec       q    Type
REMARK                         _______ _______ _______ _____ _____    ______ ____
ROOT
ATOM      1  C6  CHE B   02     18.656  68.629   8.342  0.00  0.00    +0.139 A 
ATOM      2  N1  CHE B   02     19.781  69.225   8.515  0.00  0.00    -0.227 NA
ATOM      3  C7  CHE B   02     20.251  69.331   9.704  0.00  0.00    +0.097 A 
ATOM      4  C14 CHE B   02     19.361  68.764  10.298  0.00  0.00    +0.074 A 
ATOM      5  N3  CHE B   02     18.399  68.346   9.442  0.00  0.00    -0.337 N 
ATOM      6  H11 CHE B   02     17.585  67.873   9.632  0.00  0.00    +0.167 HD
ENDROOT
BRANCH   3   7
ATOM      7  C8  CHE B   02     21.442  69.912  10.281  0.00  0.00    +0.003 A 
ATOM      8  C9  CHE B   02     22.056  70.276  10.639  0.00  0.00    +0.013 A 
ATOM      9  C10 CHE B   02     23.171  70.825  11.183  0.00  0.00    +0.039 A 
ATOM     10  C11 CHE B   02     23.690  71.018  11.378  0.00  0.00    +0.123 A 
ATOM     11  F1  CHE B   02     24.802  71.566  11.922  0.00  0.00    -0.205 F 
ATOM     12  C12 CHE B   02     23.082  70.656  11.023  0.00  0.00    +0.039 A 
ATOM     13  C13 CHE B   02     21.945  70.096  10.468  0.00  0.00    +0.013 A 
ENDBRANCH   3   7
BRANCH   1  17
ATOM     14  C2  CHE B   02     16.375  67.822   4.985  0.00  0.00    +0.063 A 
ATOM     15  C3  CHE B   02     15.935  67.958   6.195  0.00  0.00    +0.016 A 
ATOM     16  C4  CHE B   02     16.695  68.222   7.286  0.00  0.00    +0.012 A 
ATOM     17  C5  CHE B   02     17.872  68.349   7.170  0.00  0.00    +0.017 A 
ATOM     18  C20 CHE B   02     18.308  68.212   5.954  0.00  0.00    +0.012 A 
ATOM     19  C21 CHE B   02     17.543  67.947   4.859  0.00  0.00    +0.016 A 
BRANCH  14  21
ATOM     20  O1  CHE B   02     15.661  68.253   2.866  0.00  0.00    -0.241 OA
ATOM     21  C1  CHE B   02     15.597  67.544   3.820  0.00  0.00    +0.387 C 
ATOM     22  O2  CHE B   02     14.850  66.640   3.677  0.00  0.00    -0.241 OA
ENDBRANCH  14  21
ENDBRANCH   1  17
BRANCH   4  23
ATOM     23  C15 CHE B   02     19.504  68.673  11.612  0.00  0.00    +0.003 A 
ATOM     24  C16 CHE B   02     19.468  68.504  11.796  0.00  0.00    +0.030 A 
ATOM     25  C17 CHE B   02     19.613  68.429  13.083  0.00  0.00    +0.111 A 
ATOM     26  N2  CHE B   02     19.783  68.515  14.137  0.00  0.00    -0.263 NA
ATOM     27  C18 CHE B   02     19.819  68.677  13.973  0.00  0.00    +0.111 A 
ATOM     28  C19 CHE B   02     19.679  68.758  12.705  0.00  0.00    +0.030 A 
ENDBRANCH   4  23
TORSDOF 4
ENDMDL
