REMARK  Name = dock_mp/CHEMBL1/CHEMBL129760.pdb
REMARK  6 active torsions:
REMARK  status: ('A' for Active; 'I' for Inactive)
REMARK    1  A    between atoms: C1_1  and  O1_2
REMARK    2  A    between atoms: O1_2  and  C2_3
REMARK    3  A    between atoms: C5_6  and  C6_7
REMARK    4  A    between atoms: N1_9  and  C8_10
REMARK    5  A    between atoms: C9_12  and  C10_13
REMARK    6  A    between atoms: C14_17  and  C15_18
REMARK                            x       y       z     vdW  Elec       q    Type
REMARK                         _______ _______ _______ _____ _____    ______ ____
ROOT
ATOM      1  C6  CHE B   07      1.000   0.100   6.000  0.00  0.00    +0.029 A 
ATOM      2  C7  CHE B   07      1.000   0.290   0.000  0.00  0.00    +0.117 A 
ATOM      3  N1  CHE B   07      1.000  -0.900   3.000  0.00  0.00    -0.273 N 
ATOM      4  C8  CHE B   07      1.000  -1.180   8.000  0.00  0.00    +0.172 C 
ATOM      5  N2  CHE B   07      1.000  -1.820   1.000  0.00  0.00    -0.169 NA
ATOM      6  C9  CHE B   07      1.000  -1.250   9.000  0.00  0.00    +0.119 A 
ENDROOT
BRANCH   6   7
ATOM      7  C10 CHE B   07      1.000  -2.020   1.000  0.00  0.00    +0.092 A 
ATOM      8  C11 CHE B   07      1.000  -2.940   7.000  0.00  0.00    +0.030 A 
ATOM      9  C12 CHE B   07      1.000  -3.720   7.000  0.00  0.00    +0.004 A 
ATOM     10  C13 CHE B   07      1.000  -3.530   6.000  0.00  0.00    +0.023 A 
ATOM     11  C14 CHE B   07      1.000  -2.600   7.000  0.00  0.00    +0.039 A 
ATOM     12  C15 CHE B   07      1.000  -2.470   8.000  0.00  0.00    +0.065 C 
ATOM     13  N3  CHE B   07      1.000  -1.850   7.000  0.00  0.00    -0.250 NA
ENDBRANCH   6   7
BRANCH   1  17
ATOM     14  C2  CHE B   07      1.000   3.060   3.000  0.00  0.00    +0.120 A 
ATOM     15  C3  CHE B   07      1.000   3.030   8.000  0.00  0.00    +0.046 A 
ATOM     16  C4  CHE B   07      1.000   2.040   2.000  0.00  0.00    +0.012 A 
ATOM     17  C5  CHE B   07      1.000   1.090   5.000  0.00  0.00    -0.014 A 
ATOM     18  C16 CHE B   07      1.000   1.120   2.000  0.00  0.00    +0.012 A 
ATOM     19  C17 CHE B   07      1.000   2.100   7.000  0.00  0.00    +0.046 A 
BRANCH  14  21
ATOM     20  C1  CHE B   07      1.000   4.970   8.000  0.00  0.00    +0.277 C 
ATOM     21  O1  CHE B   07      1.000   4.040   5.000  0.00  0.00    -0.495 OA
ENDBRANCH  14  21
ENDBRANCH   1  17
TORSDOF 3
