REMARK  Name = dock_mp/CHEMBL1/CHEMBL185238.pdb
REMARK  3 active torsions:
REMARK  status: ('A' for Active; 'I' for Inactive)
REMARK    1  A    between atoms: C1_1  and  C2_2
REMARK    2  A    between atoms: C6_6  and  C7_7
REMARK    3  A    between atoms: C9_11  and  C10_12
REMARK                            x       y       z     vdW  Elec       q    Type
REMARK                         _______ _______ _______ _____ _____    ______ ____
ROOT
ATOM      1  C7  CHE B   02      1.000   1.060   4.000  0.00  0.00    +0.120 A 
ATOM      2  N1  CHE B   02      1.000   1.340   7.000  0.00  0.00    -0.172 NA
ATOM      3  N2  CHE B   02      1.000   0.230   2.000  0.00  0.00    -0.283 N 
ATOM      4  C8  CHE B   02      1.000  -0.830   5.000  0.00  0.00    +0.115 A 
ATOM      5  C9  CHE B   02      1.000  -0.310   0.000  0.00  0.00    +0.047 A 
ATOM      6  H7  CHE B   02      1.000   0.120   0.000  0.00  0.00    +0.188 HD
ENDROOT
BRANCH   5   7
ATOM      7  C10 CHE B   02      1.000  -1.100   0.000  0.00  0.00    +0.075 A 
ATOM      8  C11 CHE B   02      1.000  -0.970   0.000  0.00  0.00    +0.030 A 
ATOM      9  C12 CHE B   02      1.000  -1.720   2.000  0.00  0.00    +0.032 A 
ATOM     10  C13 CHE B   02      1.000  -2.610   0.000  0.00  0.00    +0.089 A 
ATOM     11  N3  CHE B   02      1.000  -3.340   8.000  0.00  0.00    -0.253 NA
ATOM     12  C14 CHE B   02      1.000  -4.240   2.000  0.00  0.00    +0.111 A 
ATOM     13  C15 CHE B   02      1.000  -4.410   0.000  0.00  0.00    +0.022 A 
ATOM     14  C16 CHE B   02      1.000  -3.650   5.000  0.00  0.00    +0.031 A 
ATOM     15  C17 CHE B   02      1.000  -2.740   0.000  0.00  0.00    +0.090 A 
ATOM     16  N4  CHE B   02      1.000  -1.990   5.000  0.00  0.00    -0.245 NA
ENDBRANCH   5   7
BRANCH   1  22
ATOM     17  C1  CHE B   02      1.000   3.270   3.000  0.00  0.00    +0.065 C 
ATOM     18  C2  CHE B   02      1.000   3.120   9.000  0.00  0.00    +0.039 A 
ATOM     19  C3  CHE B   02      1.000   3.900   9.000  0.00  0.00    +0.023 A 
ATOM     20  C4  CHE B   02      1.000   3.740   8.000  0.00  0.00    +0.004 A 
ATOM     21  C5  CHE B   02      1.000   2.800   8.000  0.00  0.00    +0.030 A 
ATOM     22  C6  CHE B   02      1.000   2.040   4.000  0.00  0.00    +0.092 A 
ATOM     23  N5  CHE B   02      1.000   2.240   7.000  0.00  0.00    -0.250 NA
ENDBRANCH   1  22
TORSDOF 2
