REMARK  Name = dock_mp/CHEMBL1/CHEMBL1164843.pdb
REMARK  6 active torsions:
REMARK  status: ('A' for Active; 'I' for Inactive)
REMARK    1  A    between atoms: C1_1  and  C2_2
REMARK    2  A    between atoms: C6_6  and  C7_7
REMARK    3  A    between atoms: N2_9  and  C8_10
REMARK    4  A    between atoms: C8_10  and  C9_11
REMARK    5  A    between atoms: C13_15  and  C14_16
REMARK    6  A    between atoms: C17_21  and  C18_22
REMARK                            x       y       z     vdW  Elec       q    Type
REMARK                         _______ _______ _______ _____ _____    ______ ____
ROOT
ATOM      1  C7  CHE B   04      1.000  -0.200  76.000  0.00  0.00    +0.120 A 
ATOM      2  N1  CHE B   04      1.000   0.900  73.000  0.00  0.00    -0.169 NA
ATOM      3  N2  CHE B   04      1.000   1.700  40.000  0.00  0.00    -0.266 N 
ATOM      4  C16 CHE B   04      1.000   0.900  70.000  0.00  0.00    +0.119 A 
ATOM      5  C17 CHE B   04      1.000  -0.300   4.000  0.00  0.00    +0.047 A 
ENDROOT
BRANCH   5   6
ATOM      6  C18 CHE B   04      1.000  -1.400  83.000  0.00  0.00    +0.075 A 
ATOM      7  C19 CHE B   04      1.000  -2.000  32.000  0.00  0.00    +0.030 A 
ATOM      8  C20 CHE B   04      1.000  -3.100  48.000  0.00  0.00    +0.032 A 
ATOM      9  C21 CHE B   04      1.000  -3.600  94.000  0.00  0.00    +0.089 A 
ATOM     10  N4  CHE B   04      1.000  -4.700  77.000  0.00  0.00    -0.253 NA
ATOM     11  C22 CHE B   04      1.000  -5.200  96.000  0.00  0.00    +0.111 A 
ATOM     12  C23 CHE B   04      1.000  -4.700   9.000  0.00  0.00    +0.022 A 
ATOM     13  C24 CHE B   04      1.000  -3.500  97.000  0.00  0.00    +0.031 A 
ATOM     14  C25 CHE B   04      1.000  -3.100  16.000  0.00  0.00    +0.090 A 
ATOM     15  N5  CHE B   04      1.000  -2.000  23.000  0.00  0.00    -0.245 NA
ENDBRANCH   5   6
BRANCH   1  21
ATOM     16  C1  CHE B   04      1.000  -4.600  28.000  0.00  0.00    +0.065 C 
ATOM     17  C2  CHE B   04      1.000  -3.400  21.000  0.00  0.00    +0.039 A 
ATOM     18  C3  CHE B   04      1.000  -3.300  81.000  0.00  0.00    +0.023 A 
ATOM     19  C4  CHE B   04      1.000  -2.200  62.000  0.00  0.00    +0.004 A 
ATOM     20  C5  CHE B   04      1.000  -1.200  33.000  0.00  0.00    +0.030 A 
ATOM     21  C6  CHE B   04      1.000  -1.300  45.000  0.00  0.00    +0.092 A 
ATOM     22  N6  CHE B   04      1.000  -2.400  25.000  0.00  0.00    -0.250 NA
ENDBRANCH   1  21
BRANCH   3  23
ATOM     23  C8  CHE B   04      1.000   3.100  33.000  0.00  0.00    +0.178 C 
BRANCH  23  24
ATOM     24  C9  CHE B   04      1.000   4.000  42.000  0.00  0.00    -0.025 A 
ATOM     25  C10 CHE B   04      1.000   4.300  86.000  0.00  0.00    +0.005 A 
ATOM     26  C11 CHE B   04      1.000   5.200  49.000  0.00  0.00    +0.001 A 
ATOM     27  C12 CHE B   04      1.000   5.700  61.000  0.00  0.00    +0.013 A 
ATOM     28  C13 CHE B   04      1.000   5.400  12.000  0.00  0.00    +0.037 A 
ATOM     29  C15 CHE B   04      1.000   4.500  64.000  0.00  0.00    +0.018 A 
BRANCH  28  30
ATOM     30  C14 CHE B   04      1.000   5.900  79.000  0.00  0.00    +0.242 C 
ATOM     31  O1  CHE B   04      1.000   6.700  58.000  0.00  0.00    -0.270 OA
ATOM     32  N3  CHE B   04      1.000   5.600  82.000  0.00  0.00    -0.325 N 
ATOM     33  H12 CHE B   04      1.000   4.900  70.000  0.00  0.00    +0.145 HD
ATOM     34  H13 CHE B   04      1.000   6.200  13.000  0.00  0.00    +0.145 HD
ENDBRANCH  28  30
ENDBRANCH  23  24
ENDBRANCH   3  23
TORSDOF 5
