REMARK  Name = dock_mp/CHEMBL1/CHEMBL181640.pdb
REMARK  2 active torsions:
REMARK  status: ('A' for Active; 'I' for Inactive)
REMARK    1  A    between atoms: C2_4  and  C3_5
REMARK    2  A    between atoms: C8_11  and  C9_12
REMARK                            x       y       z     vdW  Elec       q    Type
REMARK                         _______ _______ _______ _____ _____    ______ ____
ROOT
ATOM      1  N1  CHE B   06      1.000   1.460   3.000  0.00  0.00    -0.337 N 
ATOM      2  C1  CHE B   06      1.000   1.280   0.000  0.00  0.00    +0.157 A 
ATOM      3  N2  CHE B   06      1.000   1.790   8.000  0.00  0.00    -0.223 NA
ATOM      4  C2  CHE B   06      1.000   1.380   4.000  0.00  0.00    +0.106 A 
ATOM      5  C8  CHE B   06      1.000   0.050   2.000  0.00  0.00    +0.051 A 
ATOM      6  S1  CHE B   06      1.000  -0.510   1.000  0.00  0.00    -0.052 S 
ATOM      7  H1  CHE B   06      1.000   2.310   7.000  0.00  0.00    +0.144 HD
ATOM      8  H2  CHE B   06      1.000   0.720   7.000  0.00  0.00    +0.144 HD
ENDROOT
BRANCH   5   9
ATOM      9  C9  CHE B   06      1.000  -0.830   7.000  0.00  0.00    +0.002 A 
ATOM     10  C10 CHE B   06      1.000  -0.570   0.000  0.00  0.00    +0.029 A 
ATOM     11  C11 CHE B   06      1.000  -1.410   2.000  0.00  0.00    +0.112 A 
ATOM     12  N4  CHE B   06      1.000  -2.490   5.000  0.00  0.00    -0.255 NA
ATOM     13  C12 CHE B   06      1.000  -2.750   8.000  0.00  0.00    +0.072 A 
ATOM     14  C13 CHE B   06      1.000  -3.860   5.000  0.00  0.00    +0.028 A 
ATOM     15  C14 CHE B   06      1.000  -4.140   3.000  0.00  0.00    +0.002 A 
ATOM     16  C15 CHE B   06      1.000  -3.330   3.000  0.00  0.00    +0.001 A 
ATOM     17  C16 CHE B   06      1.000  -2.230   0.000  0.00  0.00    +0.010 A 
ATOM     18  C17 CHE B   06      1.000  -1.950   0.000  0.00  0.00    +0.009 A 
ENDBRANCH   5   9
BRANCH   4  19
ATOM     19  C3  CHE B   06      1.000   2.230   6.000  0.00  0.00    +0.090 A 
ATOM     20  C4  CHE B   06      1.000   1.890   5.000  0.00  0.00    +0.030 A 
ATOM     21  C5  CHE B   06      1.000   2.670   5.000  0.00  0.00    +0.004 A 
ATOM     22  C6  CHE B   06      1.000   3.740   6.000  0.00  0.00    +0.020 A 
ATOM     23  C7  CHE B   06      1.000   4.080   0.000  0.00  0.00    +0.111 A 
ATOM     24  N3  CHE B   06      1.000   3.300   0.000  0.00  0.00    -0.253 NA
ENDBRANCH   4  19
TORSDOF 2
