REMARK  Name = dock_mp/CHEMBL1/CHEMBL183354.pdb
REMARK  2 active torsions:
REMARK  status: ('A' for Active; 'I' for Inactive)
REMARK    1  A    between atoms: C4_4  and  C5_5
REMARK    2  A    between atoms: C7_9  and  C8_10
REMARK                            x       y       z     vdW  Elec       q    Type
REMARK                         _______ _______ _______ _____ _____    ______ ____
ROOT
ATOM      1  C5  CHE B   03      1.000  -1.990   1.000  0.00  0.00    +0.120 A 
ATOM      2  N1  CHE B   03      1.000  -2.820   5.000  0.00  0.00    -0.172 NA
ATOM      3  N2  CHE B   03      1.000  -2.100   0.000  0.00  0.00    -0.283 N 
ATOM      4  C6  CHE B   03      1.000  -0.810   1.000  0.00  0.00    +0.115 A 
ATOM      5  C7  CHE B   03      1.000  -0.700   0.000  0.00  0.00    +0.047 A 
ATOM      6  H4  CHE B   03      1.000  -2.510   7.000  0.00  0.00    +0.188 HD
ENDROOT
BRANCH   5   7
ATOM      7  C8  CHE B   03      1.000   0.520   3.000  0.00  0.00    +0.075 A 
ATOM      8  C9  CHE B   03      1.000   1.300   2.000  0.00  0.00    +0.030 A 
ATOM      9  C10 CHE B   03      1.000   2.450   6.000  0.00  0.00    +0.032 A 
ATOM     10  C11 CHE B   03      1.000   2.810   5.000  0.00  0.00    +0.089 A 
ATOM     11  N3  CHE B   03      1.000   3.930   9.000  0.00  0.00    -0.253 NA
ATOM     12  C12 CHE B   03      1.000   4.320   9.000  0.00  0.00    +0.111 A 
ATOM     13  C13 CHE B   03      1.000   3.560   8.000  0.00  0.00    +0.022 A 
ATOM     14  C14 CHE B   03      1.000   2.410   1.000  0.00  0.00    +0.031 A 
ATOM     15  C15 CHE B   03      1.000   2.020   2.000  0.00  0.00    +0.090 A 
ATOM     16  N4  CHE B   03      1.000   0.900   4.000  0.00  0.00    -0.245 NA
ENDBRANCH   5   7
BRANCH   1  20
ATOM     17  C1  CHE B   03      1.000  -3.190   0.000  0.00  0.00    +0.020 A 
ATOM     18  C2  CHE B   03      1.000  -2.600   2.000  0.00  0.00    +0.004 A 
ATOM     19  C3  CHE B   03      1.000  -2.200   6.000  0.00  0.00    +0.030 A 
ATOM     20  C4  CHE B   03      1.000  -2.400   3.000  0.00  0.00    +0.092 A 
ATOM     21  N5  CHE B   03      1.000  -2.980   2.000  0.00  0.00    -0.253 NA
ATOM     22  C16 CHE B   03      1.000  -3.370   2.000  0.00  0.00    +0.111 A 
ENDBRANCH   1  20
TORSDOF 2
