REMARK  Name = dock_mp/CHEMBL1/CHEMBL129677.pdb
REMARK  3 active torsions:
REMARK  status: ('A' for Active; 'I' for Inactive)
REMARK    1  A    between atoms: C1_1  and  C2_2
REMARK    2  A    between atoms: C6_6  and  C7_7
REMARK    3  A    between atoms: C9_11  and  C10_12
REMARK                            x       y       z     vdW  Elec       q    Type
REMARK                         _______ _______ _______ _____ _____    ______ ____
ROOT
ATOM      1  C7  CHE B   06      1.000   0.730   7.000  0.00  0.00    +0.092 A 
ATOM      2  N1  CHE B   06      1.000   0.870   9.000  0.00  0.00    -0.275 N 
ATOM      3  N2  CHE B   06      1.000  -0.330   0.000  0.00  0.00    -0.181 NA
ATOM      4  C8  CHE B   06      1.000  -1.260   2.000  0.00  0.00    +0.143 A 
ATOM      5  C9  CHE B   06      1.000  -0.600   7.000  0.00  0.00    +0.029 A 
ATOM      6  H7  CHE B   06      1.000   1.790   8.000  0.00  0.00    +0.189 HD
ENDROOT
BRANCH   5   7
ATOM      7  C10 CHE B   06      1.000  -1.220   7.000  0.00  0.00    -0.004 A 
ATOM      8  C11 CHE B   06      1.000  -0.870   3.000  0.00  0.00    +0.029 A 
ATOM      9  C12 CHE B   06      1.000  -1.480   5.000  0.00  0.00    +0.112 A 
ATOM     10  N3  CHE B   06      1.000  -2.410   0.000  0.00  0.00    -0.255 NA
ATOM     11  C13 CHE B   06      1.000  -2.760   3.000  0.00  0.00    +0.072 A 
ATOM     12  C14 CHE B   06      1.000  -3.710   6.000  0.00  0.00    +0.028 A 
ATOM     13  C15 CHE B   06      1.000  -4.080   3.000  0.00  0.00    +0.002 A 
ATOM     14  C16 CHE B   06      1.000  -3.500   2.000  0.00  0.00    +0.001 A 
ATOM     15  C17 CHE B   06      1.000  -2.560   2.000  0.00  0.00    +0.010 A 
ATOM     16  C18 CHE B   06      1.000  -2.170   8.000  0.00  0.00    +0.008 A 
ENDBRANCH   5   7
BRANCH   1  22
ATOM     17  C1  CHE B   06      1.000   3.090   0.000  0.00  0.00    +0.065 C 
ATOM     18  C2  CHE B   06      1.000   3.000   0.000  0.00  0.00    +0.039 A 
ATOM     19  C3  CHE B   06      1.000   4.000   1.000  0.00  0.00    +0.023 A 
ATOM     20  C4  CHE B   06      1.000   3.900   9.000  0.00  0.00    +0.004 A 
ATOM     21  C5  CHE B   06      1.000   2.830   9.000  0.00  0.00    +0.030 A 
ATOM     22  C6  CHE B   06      1.000   1.850   1.000  0.00  0.00    +0.089 A 
ATOM     23  N4  CHE B   06      1.000   1.960   8.000  0.00  0.00    -0.250 NA
ENDBRANCH   1  22
TORSDOF 2
