REMARK  Name = dock_mp/CHEMBL1/CHEMBL118928.pdb
REMARK  4 active torsions:
REMARK  status: ('A' for Active; 'I' for Inactive)
REMARK    1  A    between atoms: C1_1  and  C2_2
REMARK    2  A    between atoms: C6_6  and  C7_7
REMARK    3  A    between atoms: C9_11  and  C10_12
REMARK    4  A    between atoms: C13_15  and  O1_16
REMARK                            x       y       z     vdW  Elec       q    Type
REMARK                         _______ _______ _______ _____ _____    ______ ____
ROOT
ATOM      1  C7  CHE B   09      1.000   0.360   1.000  0.00  0.00    +0.118 A 
ATOM      2  N1  CHE B   09      1.000   0.470   7.000  0.00  0.00    -0.172 NA
ATOM      3  N2  CHE B   09      1.000  -0.690   9.000  0.00  0.00    -0.284 N 
ATOM      4  C8  CHE B   09      1.000  -1.610   5.000  0.00  0.00    +0.114 A 
ATOM      5  C9  CHE B   09      1.000  -1.000   1.000  0.00  0.00    +0.029 A 
ATOM      6  H7  CHE B   09      1.000  -0.940   8.000  0.00  0.00    +0.188 HD
ENDROOT
BRANCH   1  12
ATOM      7  C1  CHE B   09      1.000   3.610   0.000  0.00  0.00    +0.065 C 
ATOM      8  C2  CHE B   09      1.000   2.970   3.000  0.00  0.00    +0.039 A 
ATOM      9  C3  CHE B   09      1.000   3.350   2.000  0.00  0.00    +0.023 A 
ATOM     10  C4  CHE B   09      1.000   2.750   0.000  0.00  0.00    +0.004 A 
ATOM     11  C5  CHE B   09      1.000   1.760   6.000  0.00  0.00    +0.030 A 
ATOM     12  C6  CHE B   09      1.000   1.400   3.000  0.00  0.00    +0.092 A 
ATOM     13  N3  CHE B   09      1.000   2.000   3.000  0.00  0.00    -0.250 NA
ENDBRANCH   1  12
BRANCH   5  14
ATOM     14  C10 CHE B   09      1.000  -1.660   1.000  0.00  0.00    -0.014 A 
ATOM     15  C11 CHE B   09      1.000  -1.610   8.000  0.00  0.00    +0.012 A 
ATOM     16  C12 CHE B   09      1.000  -2.280   3.000  0.00  0.00    +0.046 A 
ATOM     17  C13 CHE B   09      1.000  -2.980   6.000  0.00  0.00    +0.117 A 
ATOM     18  C14 CHE B   09      1.000  -3.020   3.000  0.00  0.00    +0.046 A 
ATOM     19  C15 CHE B   09      1.000  -2.360   0.000  0.00  0.00    +0.012 A 
BRANCH  17  20
ATOM     20  O1  CHE B   09      1.000  -3.640   9.000  0.00  0.00    -0.507 OA
ATOM     21  H11 CHE B   09      1.000  -4.620   2.000  0.00  0.00    +0.292 HD
ENDBRANCH  17  20
ENDBRANCH   5  14
TORSDOF 3
