REMARK  Name = dock_mp/CHEMBL1/CHEMBL126180.pdb
REMARK  4 active torsions:
REMARK  status: ('A' for Active; 'I' for Inactive)
REMARK    1  A    between atoms: C1_1  and  C2_2
REMARK    2  A    between atoms: C1_1  and  N1_8
REMARK    3  A    between atoms: C9_10  and  C10_11
REMARK    4  A    between atoms: C19_21  and  C20_22
REMARK                            x       y       z     vdW  Elec       q    Type
REMARK                         _______ _______ _______ _____ _____    ______ ____
ROOT
ATOM      1  N1  CHE B   01      1.000   1.440   8.000  0.00  0.00    -0.266 N 
ATOM      2  C8  CHE B   01      1.000   0.400   6.000  0.00  0.00    +0.118 A 
ATOM      3  C9  CHE B   01      1.000  -0.460   0.000  0.00  0.00    +0.030 A 
ATOM      4  C19 CHE B   01      1.000   0.110   7.000  0.00  0.00    +0.119 A 
ATOM      5  N4  CHE B   01      1.000   1.260   2.000  0.00  0.00    -0.169 NA
ENDROOT
BRANCH   3   6
ATOM      6  C10 CHE B   01      1.000  -1.720   0.000  0.00  0.00    -0.004 A 
ATOM      7  C11 CHE B   01      1.000  -1.920   8.000  0.00  0.00    +0.029 A 
ATOM      8  C12 CHE B   01      1.000  -3.120   1.000  0.00  0.00    +0.112 A 
ATOM      9  N2  CHE B   01      1.000  -4.150   2.000  0.00  0.00    -0.255 NA
ATOM     10  C13 CHE B   01      1.000  -4.000   6.000  0.00  0.00    +0.072 A 
ATOM     11  C14 CHE B   01      1.000  -5.070   3.000  0.00  0.00    +0.028 A 
ATOM     12  C15 CHE B   01      1.000  -4.940   2.000  0.00  0.00    +0.002 A 
ATOM     13  C16 CHE B   01      1.000  -3.770   9.000  0.00  0.00    +0.001 A 
ATOM     14  C17 CHE B   01      1.000  -2.690   9.000  0.00  0.00    +0.010 A 
ATOM     15  C18 CHE B   01      1.000  -2.800   8.000  0.00  0.00    +0.008 A 
ENDBRANCH   3   6
BRANCH   4  16
ATOM     16  C20 CHE B   01      1.000  -0.350   4.000  0.00  0.00    +0.091 A 
ATOM     17  C21 CHE B   01      1.000  -0.590   5.000  0.00  0.00    +0.030 A 
ATOM     18  C22 CHE B   01      1.000  -1.040   5.000  0.00  0.00    +0.004 A 
ATOM     19  C23 CHE B   01      1.000  -1.240   0.000  0.00  0.00    +0.020 A 
ATOM     20  C24 CHE B   01      1.000  -0.980   9.000  0.00  0.00    +0.111 A 
ATOM     21  N3  CHE B   01      1.000  -0.550   3.000  0.00  0.00    -0.253 NA
ENDBRANCH   4  16
BRANCH   1  22
ATOM     22  C1  CHE B   01      1.000   2.610   7.000  0.00  0.00    +0.178 C 
BRANCH  22  23
ATOM     23  C2  CHE B   01      1.000   3.730   2.000  0.00  0.00    -0.026 A 
ATOM     24  C3  CHE B   01      1.000   4.680   3.000  0.00  0.00    +0.005 A 
ATOM     25  C4  CHE B   01      1.000   5.680   8.000  0.00  0.00    +0.000 A 
ATOM     26  C5  CHE B   01      1.000   5.780   5.000  0.00  0.00    +0.000 A 
ATOM     27  C6  CHE B   01      1.000   4.810   5.000  0.00  0.00    +0.000 A 
ATOM     28  C7  CHE B   01      1.000   3.800   0.000  0.00  0.00    +0.005 A 
ENDBRANCH  22  23
ENDBRANCH   1  22
TORSDOF 4
