REMARK  Name = dock_mp/CHEMBL1/CHEMBL120718.pdb
REMARK  3 active torsions:
REMARK  status: ('A' for Active; 'I' for Inactive)
REMARK    1  A    between atoms: C1_1  and  C2_2
REMARK    2  A    between atoms: C6_6  and  C7_7
REMARK    3  A    between atoms: C12_14  and  C13_15
REMARK                            x       y       z     vdW  Elec       q    Type
REMARK                         _______ _______ _______ _____ _____    ______ ____
ROOT
ATOM      1  C7  CHE B   07      1.000   0.410   9.000  0.00  0.00    +0.119 A 
ATOM      2  N1  CHE B   07      1.000   0.240   7.000  0.00  0.00    -0.169 NA
ATOM      3  N2  CHE B   07      1.000  -1.040   4.000  0.00  0.00    -0.267 N 
ATOM      4  C8  CHE B   07      1.000  -1.970   8.000  0.00  0.00    +0.144 C 
ATOM      5  C9  CHE B   07      1.000  -3.100   3.000  0.00  0.00    +0.029 C 
ATOM      6  C10 CHE B   07      1.000  -3.180   3.000  0.00  0.00    +0.057 C 
ATOM      7  C11 CHE B   07      1.000  -1.730   5.000  0.00  0.00    +0.048 A 
ATOM      8  C12 CHE B   07      1.000  -0.810   1.000  0.00  0.00    +0.032 A 
ENDROOT
BRANCH   8   9
ATOM      9  C13 CHE B   07      1.000  -1.180   9.000  0.00  0.00    -0.011 A 
ATOM     10  C14 CHE B   07      1.000  -1.600   4.000  0.00  0.00    +0.011 A 
ATOM     11  C15 CHE B   07      1.000  -1.990   4.000  0.00  0.00    +0.042 A 
ATOM     12  C16 CHE B   07      1.000  -1.970   7.000  0.00  0.00    +0.158 A 
ATOM     13  F1  CHE B   07      1.000  -2.350   8.000  0.00  0.00    -0.202 F 
ATOM     14  C17 CHE B   07      1.000  -1.560   5.000  0.00  0.00    +0.159 A 
ATOM     15  F2  CHE B   07      1.000  -1.530   5.000  0.00  0.00    -0.202 F 
ATOM     16  C18 CHE B   07      1.000  -1.170   8.000  0.00  0.00    +0.050 A 
ENDBRANCH   8   9
BRANCH   1  22
ATOM     17  C1  CHE B   07      1.000   4.860   6.000  0.00  0.00    +0.065 C 
ATOM     18  C2  CHE B   07      1.000   3.840   1.000  0.00  0.00    +0.039 A 
ATOM     19  C3  CHE B   07      1.000   4.130   1.000  0.00  0.00    +0.023 A 
ATOM     20  C4  CHE B   07      1.000   3.200   7.000  0.00  0.00    +0.004 A 
ATOM     21  C5  CHE B   07      1.000   1.990   7.000  0.00  0.00    +0.030 A 
ATOM     22  C6  CHE B   07      1.000   1.680   8.000  0.00  0.00    +0.092 A 
ATOM     23  N3  CHE B   07      1.000   2.640   7.000  0.00  0.00    -0.250 NA
ENDBRANCH   1  22
TORSDOF 2
