REMARK  Name = dock_mp/CHEMBL1/CHEMBL130025.pdb
REMARK  2 active torsions:
REMARK  status: ('A' for Active; 'I' for Inactive)
REMARK    1  A    between atoms: C5_5  and  C6_6
REMARK    2  A    between atoms: C8_10  and  C9_11
REMARK                            x       y       z     vdW  Elec       q    Type
REMARK                         _______ _______ _______ _____ _____    ______ ____
ROOT
ATOM      1  C6  CHE B   00      1.000  -0.280   5.000  0.00  0.00    +0.028 A 
ATOM      2  C7  CHE B   00      1.000   0.020   2.000  0.00  0.00    +0.114 A 
ATOM      3  N1  CHE B   00      1.000  -1.070   3.000  0.00  0.00    -0.284 N 
ATOM      4  N2  CHE B   00      1.000  -2.000   3.000  0.00  0.00    -0.173 NA
ATOM      5  C8  CHE B   00      1.000  -1.570   3.000  0.00  0.00    +0.107 A 
ATOM      6  H5  CHE B   00      1.000  -1.170   7.000  0.00  0.00    +0.188 HD
ENDROOT
BRANCH   1  11
ATOM      7  C1  CHE B   00      1.000   3.210   3.000  0.00  0.00    +0.002 A 
ATOM      8  C2  CHE B   00      1.000   2.380   6.000  0.00  0.00    +0.001 A 
ATOM      9  C3  CHE B   00      1.000   1.500   3.000  0.00  0.00    +0.010 A 
ATOM     10  C4  CHE B   00      1.000   1.480   7.000  0.00  0.00    +0.008 A 
ATOM     11  C5  CHE B   00      1.000   0.610   5.000  0.00  0.00    -0.004 A 
ATOM     12  C13 CHE B   00      1.000   0.590   6.000  0.00  0.00    +0.029 A 
ATOM     13  C14 CHE B   00      1.000   1.440   2.000  0.00  0.00    +0.112 A 
ATOM     14  N3  CHE B   00      1.000   2.290   6.000  0.00  0.00    -0.255 NA
ATOM     15  C15 CHE B   00      1.000   2.290   9.000  0.00  0.00    +0.072 A 
ATOM     16  C16 CHE B   00      1.000   3.160   5.000  0.00  0.00    +0.028 A 
ENDBRANCH   1  11
BRANCH   5  17
ATOM     17  C9  CHE B   00      1.000  -2.360   3.000  0.00  0.00    +0.040 A 
ATOM     18  C10 CHE B   00      1.000  -2.780   3.000  0.00  0.00    +0.018 A 
ATOM     19  C11 CHE B   00      1.000  -3.510   1.000  0.00  0.00    +0.008 A 
ATOM     20  C12 CHE B   00      1.000  -3.830   6.000  0.00  0.00    +0.046 A 
ATOM     21  S1  CHE B   00      1.000  -3.030   4.000  0.00  0.00    -0.095 S 
ENDBRANCH   5  17
TORSDOF 2
