REMARK  Name = dock_mp/CHEMBL1/CHEMBL1164971.pdb
REMARK  6 active torsions:
REMARK  status: ('A' for Active; 'I' for Inactive)
REMARK    1  A    between atoms: C1_1  and  C2_2
REMARK    2  A    between atoms: C6_6  and  C7_7
REMARK    3  A    between atoms: N1_9  and  C9_10
REMARK    4  A    between atoms: C9_10  and  C10_11
REMARK    5  A    between atoms: C14_15  and  C15_16
REMARK    6  A    between atoms: C17_20  and  C18_21
REMARK                            x       y       z     vdW  Elec       q    Type
REMARK                         _______ _______ _______ _____ _____    ______ ____
ROOT
ATOM      1  C7  CHE B   04      1.000   0.000  61.000  0.00  0.00    +0.046 A 
ATOM      2  C8  CHE B   04      1.000   1.300  70.000  0.00  0.00    +0.119 A 
ATOM      3  N1  CHE B   04      1.000   1.900  68.000  0.00  0.00    -0.266 N 
ATOM      4  N3  CHE B   04      1.000   1.000  73.000  0.00  0.00    -0.170 NA
ATOM      5  C17 CHE B   04      1.000  -0.100  21.000  0.00  0.00    +0.102 A 
ENDROOT
BRANCH   5   6
ATOM      6  C18 CHE B   04      1.000  -1.300  67.000  0.00  0.00    +0.003 A 
ATOM      7  C19 CHE B   04      1.000  -1.800  41.000  0.00  0.00    +0.012 A 
ATOM      8  C20 CHE B   04      1.000  -3.000  19.000  0.00  0.00    +0.029 A 
ATOM      9  C21 CHE B   04      1.000  -3.700  51.000  0.00  0.00    +0.071 A 
ATOM     10  N4  CHE B   04      1.000  -4.800  98.000  0.00  0.00    -0.255 NA
ATOM     11  C22 CHE B   04      1.000  -5.600  79.000  0.00  0.00    +0.111 A 
ATOM     12  C23 CHE B   04      1.000  -5.200  80.000  0.00  0.00    +0.020 A 
ATOM     13  C24 CHE B   04      1.000  -4.100   5.000  0.00  0.00    +0.011 A 
ATOM     14  C25 CHE B   04      1.000  -3.300  10.000  0.00  0.00    +0.001 A 
ATOM     15  C26 CHE B   04      1.000  -2.100  23.000  0.00  0.00    +0.020 A 
ENDBRANCH   5   6
BRANCH   1  21
ATOM     16  C1  CHE B   04      1.000  -1.100   7.000  0.00  0.00    +0.065 C 
ATOM     17  C2  CHE B   04      1.000  -1.400  66.000  0.00  0.00    +0.039 A 
ATOM     18  C3  CHE B   04      1.000  -2.600  15.000  0.00  0.00    +0.023 A 
ATOM     19  C4  CHE B   04      1.000  -2.800  73.000  0.00  0.00    +0.004 A 
ATOM     20  C5  CHE B   04      1.000  -2.000  14.000  0.00  0.00    +0.028 A 
ATOM     21  C6  CHE B   04      1.000  -0.800  87.000  0.00  0.00    +0.075 A 
ATOM     22  N5  CHE B   04      1.000  -0.600  38.000  0.00  0.00    -0.252 NA
ENDBRANCH   1  21
BRANCH   3  23
ATOM     23  C9  CHE B   04      1.000   3.300  57.000  0.00  0.00    +0.178 C 
BRANCH  23  24
ATOM     24  C10 CHE B   04      1.000   4.300   6.000  0.00  0.00    -0.025 A 
ATOM     25  C11 CHE B   04      1.000   4.800  10.000  0.00  0.00    +0.005 A 
ATOM     26  C12 CHE B   04      1.000   5.700  19.000  0.00  0.00    +0.002 A 
ATOM     27  C13 CHE B   04      1.000   6.100  20.000  0.00  0.00    +0.019 A 
ATOM     28  C14 CHE B   04      1.000   5.600   1.000  0.00  0.00    +0.052 A 
ATOM     29  C16 CHE B   04      1.000   4.600  92.000  0.00  0.00    +0.024 A 
BRANCH  28  30
ATOM     30  C15 CHE B   04      1.000   5.900  69.000  0.00  0.00    +0.099 C 
ATOM     31  N2  CHE B   04      1.000   6.200  85.000  0.00  0.00    -0.191 NA
ENDBRANCH  28  30
ENDBRANCH  23  24
ENDBRANCH   3  23
TORSDOF 5
