REMARK  Name = dock_mp/CHEMBL1/CHEMBL125738.pdb
REMARK  3 active torsions:
REMARK  status: ('A' for Active; 'I' for Inactive)
REMARK    1  A    between atoms: C1_1  and  C2_2
REMARK    2  A    between atoms: C6_6  and  C7_7
REMARK    3  A    between atoms: C9_11  and  C10_12
REMARK                            x       y       z     vdW  Elec       q    Type
REMARK                         _______ _______ _______ _____ _____    ______ ____
ROOT
ATOM      1  C7  CHE B   07      1.000   0.340   6.000  0.00  0.00    +0.092 A 
ATOM      2  N1  CHE B   07      1.000   0.740   4.000  0.00  0.00    -0.275 N 
ATOM      3  N2  CHE B   07      1.000  -0.330   3.000  0.00  0.00    -0.181 NA
ATOM      4  C8  CHE B   07      1.000  -1.410   8.000  0.00  0.00    +0.143 A 
ATOM      5  C9  CHE B   07      1.000  -1.010   7.000  0.00  0.00    +0.029 A 
ATOM      6  H7  CHE B   07      1.000   1.710   7.000  0.00  0.00    +0.189 HD
ENDROOT
BRANCH   1  12
ATOM      7  C1  CHE B   07      1.000   4.140   7.000  0.00  0.00    +0.065 C 
ATOM      8  C2  CHE B   07      1.000   3.010   5.000  0.00  0.00    +0.039 A 
ATOM      9  C3  CHE B   07      1.000   2.810   9.000  0.00  0.00    +0.023 A 
ATOM     10  C4  CHE B   07      1.000   1.760   5.000  0.00  0.00    +0.004 A 
ATOM     11  C5  CHE B   07      1.000   0.920   2.000  0.00  0.00    +0.030 A 
ATOM     12  C6  CHE B   07      1.000   1.160   1.000  0.00  0.00    +0.089 A 
ATOM     13  N3  CHE B   07      1.000   2.180   7.000  0.00  0.00    -0.250 NA
ENDBRANCH   1  12
BRANCH   5  14
ATOM     14  C10 CHE B   07      1.000  -1.860   4.000  0.00  0.00    -0.014 A 
ATOM     15  C11 CHE B   07      1.000  -2.930   0.000  0.00  0.00    +0.010 A 
ATOM     16  C12 CHE B   07      1.000  -3.800   6.000  0.00  0.00    +0.020 A 
ATOM     17  C13 CHE B   07      1.000  -3.610   8.000  0.00  0.00    +0.041 A 
ATOM     18 CL1  CHE B   07      1.000  -4.720   6.000  0.00  0.00    -0.084 Cl
ATOM     19  C14 CHE B   07      1.000  -2.540   7.000  0.00  0.00    +0.020 A 
ATOM     20  C15 CHE B   07      1.000  -1.680   0.000  0.00  0.00    +0.010 A 
ENDBRANCH   5  14
TORSDOF 2
