REMARK  Name = dock_mp/CHEMBL1/CHEMBL125846.pdb
REMARK  3 active torsions:
REMARK  status: ('A' for Active; 'I' for Inactive)
REMARK    1  A    between atoms: C1_1  and  C2_2
REMARK    2  A    between atoms: C6_6  and  C7_7
REMARK    3  A    between atoms: C9_11  and  C10_12
REMARK                            x       y       z     vdW  Elec       q    Type
REMARK                         _______ _______ _______ _____ _____    ______ ____
ROOT
ATOM      1  C7  CHE B   08      1.000  -0.030   5.000  0.00  0.00    +0.092 A 
ATOM      2  N1  CHE B   08      1.000   0.050   4.000  0.00  0.00    -0.275 N 
ATOM      3  N2  CHE B   08      1.000  -1.110   8.000  0.00  0.00    -0.181 NA
ATOM      4  C8  CHE B   08      1.000  -2.010   3.000  0.00  0.00    +0.143 A 
ATOM      5  C9  CHE B   08      1.000  -1.320   9.000  0.00  0.00    +0.029 A 
ATOM      6  H7  CHE B   08      1.000   0.900   9.000  0.00  0.00    +0.189 HD
ENDROOT
BRANCH   1  12
ATOM      7  C1  CHE B   08      1.000   2.910   1.000  0.00  0.00    +0.065 C 
ATOM      8  C2  CHE B   08      1.000   2.490   0.000  0.00  0.00    +0.039 A 
ATOM      9  C3  CHE B   08      1.000   3.130   0.000  0.00  0.00    +0.023 A 
ATOM     10  C4  CHE B   08      1.000   2.750   2.000  0.00  0.00    +0.004 A 
ATOM     11  C5  CHE B   08      1.000   1.690   9.000  0.00  0.00    +0.030 A 
ATOM     12  C6  CHE B   08      1.000   1.070   6.000  0.00  0.00    +0.089 A 
ATOM     13  N3  CHE B   08      1.000   1.460   6.000  0.00  0.00    -0.250 NA
ENDBRANCH   1  12
BRANCH   5  14
ATOM     14  C10 CHE B   08      1.000  -1.840   0.000  0.00  0.00    -0.014 A 
ATOM     15  C11 CHE B   08      1.000  -1.870   1.000  0.00  0.00    +0.011 A 
ATOM     16  C12 CHE B   08      1.000  -2.360   7.000  0.00  0.00    +0.039 A 
ATOM     17  C13 CHE B   08      1.000  -2.800   8.000  0.00  0.00    +0.123 A 
ATOM     18  F1  CHE B   08      1.000  -3.290   2.000  0.00  0.00    -0.205 F 
ATOM     19  C14 CHE B   08      1.000  -2.770   6.000  0.00  0.00    +0.039 A 
ATOM     20  C15 CHE B   08      1.000  -2.280   7.000  0.00  0.00    +0.011 A 
ENDBRANCH   5  14
TORSDOF 2
