REMARK  Name = dock_mp/CHEMBL1/CHEMBL1165374.pdb
REMARK  6 active torsions:
REMARK  status: ('A' for Active; 'I' for Inactive)
REMARK    1  A    between atoms: C1_1  and  C2_2
REMARK    2  A    between atoms: C6_6  and  C7_7
REMARK    3  A    between atoms: C8_9  and  C9_10
REMARK    4  A    between atoms: C9_10  and  C10_11
REMARK    5  A    between atoms: C14_15  and  C15_16
REMARK    6  A    between atoms: C17_20  and  C18_21
REMARK                            x       y       z     vdW  Elec       q    Type
REMARK                         _______ _______ _______ _____ _____    ______ ____
ROOT
ATOM      1  C7  CHE B   05      1.000   0.200  88.000  0.00  0.00    +0.092 A 
ATOM      2  N1  CHE B   05      1.000   1.600  22.000  0.00  0.00    -0.340 N 
ATOM      3  C8  CHE B   05      1.000   1.800   4.000  0.00  0.00    +0.113 A 
ATOM      4  N3  CHE B   05      1.000   0.600  11.000  0.00  0.00    -0.231 NA
ATOM      5  C17 CHE B   05      1.000  -0.300  52.000  0.00  0.00    +0.098 A 
ATOM      6  H7  CHE B   05      1.000   2.300  71.000  0.00  0.00    +0.167 HD
ENDROOT
BRANCH   5   7
ATOM      7  C18 CHE B   05      1.000  -1.700  75.000  0.00  0.00    +0.003 A 
ATOM      8  C19 CHE B   05      1.000  -2.700  44.000  0.00  0.00    +0.012 A 
ATOM      9  C20 CHE B   05      1.000  -4.000  90.000  0.00  0.00    +0.029 A 
ATOM     10  C21 CHE B   05      1.000  -4.400  67.000  0.00  0.00    +0.071 A 
ATOM     11  N4  CHE B   05      1.000  -5.700  85.000  0.00  0.00    -0.255 NA
ATOM     12  C22 CHE B   05      1.000  -6.200   9.000  0.00  0.00    +0.111 A 
ATOM     13  C23 CHE B   05      1.000  -5.300  34.000  0.00  0.00    +0.020 A 
ATOM     14  C24 CHE B   05      1.000  -3.900  90.000  0.00  0.00    +0.011 A 
ATOM     15  C25 CHE B   05      1.000  -3.500  40.000  0.00  0.00    +0.001 A 
ATOM     16  C26 CHE B   05      1.000  -2.100  85.000  0.00  0.00    +0.020 A 
ENDBRANCH   5   7
BRANCH   1  22
ATOM     17  C1  CHE B   05      1.000   0.000  15.000  0.00  0.00    +0.065 C 
ATOM     18  C2  CHE B   05      1.000  -0.300  91.000  0.00  0.00    +0.039 A 
ATOM     19  C3  CHE B   05      1.000  -1.200  14.000  0.00  0.00    +0.023 A 
ATOM     20  C4  CHE B   05      1.000  -1.500  78.000  0.00  0.00    +0.004 A 
ATOM     21  C5  CHE B   05      1.000  -1.000  78.000  0.00  0.00    +0.030 A 
ATOM     22  C6  CHE B   05      1.000  -0.200  58.000  0.00  0.00    +0.090 A 
ATOM     23  N5  CHE B   05      1.000   0.000  76.000  0.00  0.00    -0.250 NA
ENDBRANCH   1  22
BRANCH   3  24
ATOM     24  C9  CHE B   05      1.000   3.100  48.000  0.00  0.00    +0.109 C 
BRANCH  24  25
ATOM     25  C10 CHE B   05      1.000   3.800  50.000  0.00  0.00    -0.039 A 
ATOM     26  C11 CHE B   05      1.000   3.700  44.000  0.00  0.00    +0.004 A 
ATOM     27  C12 CHE B   05      1.000   4.400  50.000  0.00  0.00    +0.002 A 
ATOM     28  C13 CHE B   05      1.000   5.200  46.000  0.00  0.00    +0.019 A 
ATOM     29  C14 CHE B   05      1.000   5.300  37.000  0.00  0.00    +0.052 A 
ATOM     30  C16 CHE B   05      1.000   4.600  45.000  0.00  0.00    +0.023 A 
BRANCH  29  31
ATOM     31  C15 CHE B   05      1.000   6.100  46.000  0.00  0.00    +0.099 C 
ATOM     32  N2  CHE B   05      1.000   6.800   6.000  0.00  0.00    -0.191 NA
ENDBRANCH  29  31
ENDBRANCH  24  25
ENDBRANCH   3  24
TORSDOF 5
