REMARK  Name = dock_mp/CHEMBL1/CHEMBL1165694.pdb
REMARK  6 active torsions:
REMARK  status: ('A' for Active; 'I' for Inactive)
REMARK    1  A    between atoms: C1_1  and  C2_2
REMARK    2  A    between atoms: C6_6  and  C7_7
REMARK    3  A    between atoms: N2_9  and  C8_10
REMARK    4  A    between atoms: C8_10  and  C9_11
REMARK    5  A    between atoms: C13_15  and  C14_16
REMARK    6  A    between atoms: C17_20  and  C18_21
REMARK                            x       y       z     vdW  Elec       q    Type
REMARK                         _______ _______ _______ _____ _____    ______ ____
ROOT
ATOM      1  C7  CHE B   05      1.000  -0.200  82.000  0.00  0.00    +0.120 A 
ATOM      2  N1  CHE B   05      1.000  -1.500  84.000  0.00  0.00    -0.169 NA
ATOM      3  N2  CHE B   05      1.000  -2.000  43.000  0.00  0.00    -0.266 N 
ATOM      4  C16 CHE B   05      1.000  -1.000  39.000  0.00  0.00    +0.119 A 
ATOM      5  C17 CHE B   05      1.000   0.000  98.000  0.00  0.00    +0.047 A 
ENDROOT
BRANCH   5   6
ATOM      6  C18 CHE B   05      1.000   1.400  10.000  0.00  0.00    +0.075 A 
ATOM      7  C19 CHE B   05      1.000   2.200  40.000  0.00  0.00    +0.030 A 
ATOM      8  C20 CHE B   05      1.000   3.500   2.000  0.00  0.00    +0.032 A 
ATOM      9  C21 CHE B   05      1.000   3.900   4.000  0.00  0.00    +0.089 A 
ATOM     10  N4  CHE B   05      1.000   5.100  44.000  0.00  0.00    -0.253 NA
ATOM     11  C22 CHE B   05      1.000   5.500  94.000  0.00  0.00    +0.111 A 
ATOM     12  C23 CHE B   05      1.000   4.800   6.000  0.00  0.00    +0.022 A 
ATOM     13  C24 CHE B   05      1.000   3.500  45.000  0.00  0.00    +0.031 A 
ATOM     14  C25 CHE B   05      1.000   3.000  58.000  0.00  0.00    +0.090 A 
ATOM     15  N5  CHE B   05      1.000   1.800  27.000  0.00  0.00    -0.245 NA
ENDBRANCH   5   6
BRANCH   1  21
ATOM     16  C1  CHE B   05      1.000   2.100  54.000  0.00  0.00    +0.065 C 
ATOM     17  C2  CHE B   05      1.000   1.800  11.000  0.00  0.00    +0.039 A 
ATOM     18  C3  CHE B   05      1.000   2.300  88.000  0.00  0.00    +0.023 A 
ATOM     19  C4  CHE B   05      1.000   2.000  77.000  0.00  0.00    +0.004 A 
ATOM     20  C5  CHE B   05      1.000   1.200   2.000  0.00  0.00    +0.030 A 
ATOM     21  C6  CHE B   05      1.000   0.600  38.000  0.00  0.00    +0.092 A 
ATOM     22  N6  CHE B   05      1.000   0.900  75.000  0.00  0.00    -0.250 NA
ENDBRANCH   1  21
BRANCH   3  23
ATOM     23  C8  CHE B   05      1.000  -3.300  79.000  0.00  0.00    +0.178 C 
BRANCH  23  24
ATOM     24  C9  CHE B   05      1.000  -4.200  10.000  0.00  0.00    -0.025 A 
ATOM     25  C10 CHE B   05      1.000  -4.200  34.000  0.00  0.00    +0.005 A 
ATOM     26  C11 CHE B   05      1.000  -4.900  84.000  0.00  0.00    +0.002 A 
ATOM     27  C12 CHE B   05      1.000  -5.700  49.000  0.00  0.00    +0.019 A 
ATOM     28  C13 CHE B   05      1.000  -5.700  50.000  0.00  0.00    +0.052 A 
ATOM     29  C15 CHE B   05      1.000  -4.900  82.000  0.00  0.00    +0.024 A 
BRANCH  28  30
ATOM     30  C14 CHE B   05      1.000  -6.500  57.000  0.00  0.00    +0.099 C 
ATOM     31  N3  CHE B   05      1.000  -7.200   5.000  0.00  0.00    -0.191 NA
ENDBRANCH  28  30
ENDBRANCH  23  24
ENDBRANCH   3  23
TORSDOF 5
