REMARK  Name = dock_mp/CHEMBL1/CHEMBL1421.pdb
REMARK  8 active torsions:
REMARK  status: ('A' for Active; 'I' for Inactive)
REMARK    1  A    between atoms: C1_1  and  C2_2
REMARK    2  A    between atoms: C3_4  and  N2_5
REMARK    3  A    between atoms: C6_9  and  C7_10
REMARK    4  A    between atoms: N4_12  and  C8_13
REMARK    5  A    between atoms: C9_14  and  C10_15
REMARK    6  A    between atoms: N6_27  and  C19_28
REMARK    7  A    between atoms: C19_28  and  C20_29
REMARK    8  A    between atoms: C20_29  and  O2_30
REMARK                            x       y       z     vdW  Elec       q    Type
REMARK                         _______ _______ _______ _____ _____    ______ ____
ROOT
ATOM      1  N2  CHE B   01      1.000   0.314   0.439  0.00  0.00    -0.279 N 
ATOM      2  C4  CHE B   01      1.000   1.689   0.418  0.00  0.00    +0.164 A 
ATOM      3  N3  CHE B   01      1.000   2.251   0.071  0.00  0.00    -0.232 NA
ATOM      4  C5  CHE B   01      1.000   3.544   0.138  0.00  0.00    +0.133 A 
ATOM      5  C6  CHE B   01      1.000   4.287   0.517  0.00  0.00    +0.095 A 
ATOM      6  S1  CHE B   01      1.000   3.106   0.844  0.00  0.00    -0.047 S 
ATOM      7  H4  CHE B   01      1.000   0.091   0.721  0.00  0.00    +0.155 HD
ENDROOT
BRANCH   1  11
ATOM      8  C1  CHE B   01      1.000  -0.712  -1.030  0.00  0.00    +0.088 C 
ATOM      9  C2  CHE B   01      1.000  -1.166  -0.639  0.00  0.00    +0.130 A 
ATOM     10  N1  CHE B   01      1.000  -0.256  -0.284  0.00  0.00    -0.217 NA
ATOM     11  C3  CHE B   01      1.000  -0.633   0.077  0.00  0.00    +0.130 A 
ATOM     12  C15 CHE B   01      1.000  -1.968   0.089  0.00  0.00    +0.087 A 
ATOM     13  C16 CHE B   01      1.000  -2.910  -0.269  0.00  0.00    +0.126 A 
ATOM     14  N5  CHE B   01      1.000  -4.315  -0.269  0.00  0.00    -0.319 N 
ATOM     15  C17 CHE B   01      1.000  -5.229  -0.675  0.00  0.00    +0.088 C 
ATOM     16  C18 CHE B   01      1.000  -6.648  -0.278  0.00  0.00    -0.059 C 
ATOM     17  N6  CHE B   01      1.000  -6.921  -0.508  0.00  0.00    +0.383 N 
ATOM     18  C21 CHE B   01      1.000  -6.199   0.412  0.00  0.00    -0.059 C 
ATOM     19  C22 CHE B   01      1.000  -4.715   0.134  0.00  0.00    +0.088 C 
ATOM     20  N7  CHE B   01      1.000  -2.460  -0.616  0.00  0.00    -0.218 NA
ATOM     21  H18 CHE B   01      1.000  -6.529  -1.468  0.00  0.00    -0.082 HD
BRANCH  17  22
ATOM     22  C19 CHE B   01      1.000  -8.324  -0.579  0.00  0.00    -0.051 C 
BRANCH  22  23
ATOM     23  C20 CHE B   01      1.000  -9.041   0.727  0.00  0.00    +0.137 C 
BRANCH  23  24
ATOM     24  O2  CHE B   01      1.000  -8.931   1.368  0.00  0.00    -0.397 OA
ATOM     25  H23 CHE B   01      1.000  -9.087   2.327  0.00  0.00    +0.209 HD
ENDBRANCH  23  24
ENDBRANCH  22  23
ENDBRANCH  17  22
ENDBRANCH   1  11
BRANCH   5  26
ATOM     26  C7  CHE B   01      1.000   5.729   0.663  0.00  0.00    +0.256 C 
ATOM     27  O1  CHE B   01      1.000   6.166   1.044  0.00  0.00    -0.269 OA
ATOM     28  N4  CHE B   01      1.000   6.539   0.375  0.00  0.00    -0.280 N 
ATOM     29  H6  CHE B   01      1.000   6.114   0.066  0.00  0.00    +0.155 HD
BRANCH  28  30
ATOM     30  C8  CHE B   01      1.000   7.960   0.488  0.00  0.00    +0.055 A 
ATOM     31  C9  CHE B   01      1.000   8.672  -0.631  0.00  0.00    -0.028 A 
ATOM     32  C10 CHE B   01      1.000   7.946  -1.889  0.00  0.00    +0.046 C 
ATOM     33  C11 CHE B   01      1.000  10.057  -0.558  0.00  0.00    +0.005 A 
ATOM     34  C12 CHE B   01      1.000  10.731   0.619  0.00  0.00    +0.002 A 
ATOM     35  C13 CHE B   01      1.000   9.997   1.739  0.00  0.00    +0.022 A 
ATOM     36  C14 CHE B   01      1.000   8.630   1.652  0.00  0.00    +0.062 A 
ATOM     37 CL1  CHE B   01      1.000   7.713   3.069  0.00  0.00    -0.082 Cl
ENDBRANCH  28  30
ENDBRANCH   5  26
TORSDOF 6
