MODEL 1
REMARK VINA RESULT:      -9.7      0.000      0.000
REMARK  Name = dock_mp/CHEMBL1/CHEMBL129678.pdb
REMARK  3 active torsions:
REMARK  status: ('A' for Active; 'I' for Inactive)
REMARK    1  A    between atoms: C1_2  and  C2_5
REMARK    2  A    between atoms: C6_9  and  C7_10
REMARK    3  A    between atoms: C9_14  and  C10_15
REMARK                            x       y       z     vdW  Elec       q    Type
REMARK                         _______ _______ _______ _____ _____    ______ ____
ROOT
ATOM      1  C7  CHE B   06     21.616  69.422  11.473  0.00  0.00    +0.100 A 
ATOM      2  N1  CHE B   06     18.638  67.479   6.610  0.00  0.00    -0.173 NA
ATOM      3  N2  CHE B   06     18.617  67.590   7.905  0.00  0.00    -0.284 N 
ATOM      4  C8  CHE B   06     15.597  65.868   5.631  0.00  0.00    +0.114 A 
ATOM      5  C9  CHE B   06     16.834  66.617   7.023  0.00  0.00    +0.028 A 
ATOM      6  H4  CHE B   06     17.659  66.956   6.251  0.00  0.00    +0.188 HD
ENDROOT
BRANCH   5   7
ATOM      7  C10 CHE B   06     17.239  67.023   9.194  0.00  0.00    -0.004 A 
ATOM      8  C11 CHE B   06     15.462  67.889   5.715  0.00  0.00    +0.029 A 
ATOM      9  C12 CHE B   06     18.514  67.029  13.120  0.00  0.00    +0.112 A 
ATOM     10  N3  CHE B   06     17.691  67.902  12.588  0.00  0.00    -0.255 NA
ATOM     11  C13 CHE B   06     16.853  68.248  10.804  0.00  0.00    +0.072 A 
ATOM     12  C14 CHE B   06     17.317  68.551  12.922  0.00  0.00    +0.028 A 
ATOM     13  C15 CHE B   06     15.174  69.499   8.504  0.00  0.00    +0.002 A 
ATOM     14  C16 CHE B   06     17.773  67.760  12.515  0.00  0.00    +0.001 A 
ATOM     15  C17 CHE B   06     15.134  68.459   6.008  0.00  0.00    +0.010 A 
ATOM     16  C18 CHE B   06     15.972  68.113   7.792  0.00  0.00    +0.008 A 
ENDBRANCH   5   7
BRANCH   1  21
ATOM     17  C2  CHE B   06     18.508  67.800   3.879  0.00  0.00    +0.055 A 
ATOM     18  C3  CHE B   06     18.890  67.994   4.838  0.00  0.00    +0.012 A 
ATOM     19  C4  CHE B   06     22.127  70.062  10.784  0.00  0.00    +0.001 A 
ATOM     20  C5  CHE B   06     19.656  68.104   8.224  0.00  0.00    +0.010 A 
ATOM     21  C6  CHE B   06     18.736  67.519   6.519  0.00  0.00    +0.003 A 
ATOM     22  C19 CHE B   06     19.247  68.158   5.829  0.00  0.00    +0.022 A 
BRANCH  17  24
ATOM     23  F1  CHE B   06     22.072  70.974   6.368  0.00  0.00    -0.166 F 
ATOM     24  C1  CHE B   06     20.126  69.257   4.644  0.00  0.00    +0.417 C 
ATOM     25  F2  CHE B   06     21.002  70.052   4.945  0.00  0.00    -0.166 F 
ATOM     26  F3  CHE B   06     21.858  70.703   7.980  0.00  0.00    -0.166 F 
ENDBRANCH  17  24
ENDBRANCH   1  21
TORSDOF 3
ENDMDL
MODEL 2
REMARK VINA RESULT:      -9.4      2.035      5.961
REMARK  Name = dock_mp/CHEMBL1/CHEMBL129678.pdb
REMARK  3 active torsions:
REMARK  status: ('A' for Active; 'I' for Inactive)
REMARK    1  A    between atoms: C1_2  and  C2_5
REMARK    2  A    between atoms: C6_9  and  C7_10
REMARK    3  A    between atoms: C9_14  and  C10_15
REMARK                            x       y       z     vdW  Elec       q    Type
REMARK                         _______ _______ _______ _____ _____    ______ ____
ROOT
ATOM      1  C7  CHE B   06     21.455  69.377   2.847  0.00  0.00    +0.100 A 
ATOM      2  N1  CHE B   06     18.860  68.415   8.198  0.00  0.00    -0.173 NA
ATOM      3  N2  CHE B   06     18.656  68.649   6.935  0.00  0.00    -0.284 N 
ATOM      4  C8  CHE B   06     15.652  68.153   9.762  0.00  0.00    +0.114 A 
ATOM      5  C9  CHE B   06     16.819  68.440   8.153  0.00  0.00    +0.028 A 
ATOM      6  H4  CHE B   06     17.834  68.323   8.744  0.00  0.00    +0.188 HD
ENDROOT
BRANCH   5   7
ATOM      7  C10 CHE B   06     16.961  68.843   5.950  0.00  0.00    -0.004 A 
ATOM      8  C11 CHE B   06     16.078  66.476   9.052  0.00  0.00    +0.029 A 
ATOM      9  C12 CHE B   06     17.535  70.401   2.170  0.00  0.00    +0.112 A 
ATOM     10  N3  CHE B   06     17.079  69.198   2.434  0.00  0.00    -0.255 NA
ATOM     11  C13 CHE B   06     16.669  68.096   4.053  0.00  0.00    +0.072 A 
ATOM     12  C14 CHE B   06     16.848  68.595   1.929  0.00  0.00    +0.028 A 
ATOM     13  C15 CHE B   06     15.791  65.762   5.912  0.00  0.00    +0.002 A 
ATOM     14  C16 CHE B   06     17.130  69.331   2.545  0.00  0.00    +0.001 A 
ATOM     15  C17 CHE B   06     15.874  65.947   8.609  0.00  0.00    +0.010 A 
ATOM     16  C18 CHE B   06     16.285  67.049   6.990  0.00  0.00    +0.008 A 
ENDBRANCH   5   7
BRANCH   1  21
ATOM     17  C2  CHE B   06     19.460  68.151  10.876  0.00  0.00    +0.055 A 
ATOM     18  C3  CHE B   06     19.697  68.304   9.865  0.00  0.00    +0.012 A 
ATOM     19  C4  CHE B   06     22.366  69.430   3.406  0.00  0.00    +0.001 A 
ATOM     20  C5  CHE B   06     19.734  68.723   6.417  0.00  0.00    +0.010 A 
ATOM     21  C6  CHE B   06     18.980  68.401   8.268  0.00  0.00    +0.003 A 
ATOM     22  C19 CHE B   06     19.891  68.454   8.827  0.00  0.00    +0.022 A 
BRANCH  17  24
ATOM     23  F1  CHE B   06     23.689  69.383   7.785  0.00  0.00    -0.166 F 
ATOM     24  C1  CHE B   06     21.456  68.544   9.789  0.00  0.00    +0.417 C 
ATOM     25  F2  CHE B   06     22.562  68.706   9.298  0.00  0.00    -0.166 F 
ATOM     26  F3  CHE B   06     23.064  70.111   6.445  0.00  0.00    -0.166 F 
ENDBRANCH  17  24
ENDBRANCH   1  21
TORSDOF 3
ENDMDL
MODEL 3
REMARK VINA RESULT:      -9.3      2.650      3.868
REMARK  Name = dock_mp/CHEMBL1/CHEMBL129678.pdb
REMARK  3 active torsions:
REMARK  status: ('A' for Active; 'I' for Inactive)
REMARK    1  A    between atoms: C1_2  and  C2_5
REMARK    2  A    between atoms: C6_9  and  C7_10
REMARK    3  A    between atoms: C9_14  and  C10_15
REMARK                            x       y       z     vdW  Elec       q    Type
REMARK                         _______ _______ _______ _____ _____    ______ ____
ROOT
ATOM      1  C7  CHE B   06     23.437  69.815   6.020  0.00  0.00    +0.100 A 
ATOM      2  N1  CHE B   06     17.668  68.405   5.007  0.00  0.00    -0.173 NA
ATOM      3  N2  CHE B   06     18.549  68.728   5.906  0.00  0.00    -0.284 N 
ATOM      4  C8  CHE B   06     14.542  67.966   6.692  0.00  0.00    +0.114 A 
ATOM      5  C9  CHE B   06     16.503  68.394   6.684  0.00  0.00    +0.028 A 
ATOM      6  H4  CHE B   06     16.632  68.252   5.520  0.00  0.00    +0.188 HD
ENDROOT
BRANCH   5   7
ATOM      7  C10 CHE B   06     18.335  68.965   7.850  0.00  0.00    -0.004 A 
ATOM      8  C11 CHE B   06     15.440  66.383   6.870  0.00  0.00    +0.029 A 
ATOM      9  C12 CHE B   06     21.628  70.799   9.532  0.00  0.00    +0.112 A 
ATOM     10  N3  CHE B   06     21.205  69.590   9.817  0.00  0.00    -0.255 NA
ATOM     11  C13 CHE B   06     19.718  68.373   9.256  0.00  0.00    +0.072 A 
ATOM     12  C14 CHE B   06     21.502  69.032  10.340  0.00  0.00    +0.028 A 
ATOM     13  C15 CHE B   06     17.823  65.920   9.006  0.00  0.00    +0.002 A 
ATOM     14  C16 CHE B   06     21.140  69.712   9.702  0.00  0.00    +0.001 A 
ATOM     15  C17 CHE B   06     15.701  65.893   7.329  0.00  0.00    +0.010 A 
ATOM     16  C18 CHE B   06     17.188  67.110   7.890  0.00  0.00    +0.008 A 
ENDBRANCH   5   7
BRANCH   1  21
ATOM     17  C2  CHE B   06     15.830  68.143   2.971  0.00  0.00    +0.055 A 
ATOM     18  C3  CHE B   06     16.780  68.350   3.367  0.00  0.00    +0.012 A 
ATOM     19  C4  CHE B   06     23.482  69.976   4.963  0.00  0.00    +0.001 A 
ATOM     20  C5  CHE B   06     19.598  68.851   5.335  0.00  0.00    +0.010 A 
ATOM     21  C6  CHE B   06     17.684  68.388   4.869  0.00  0.00    +0.003 A 
ATOM     22  C19 CHE B   06     17.729  68.549   3.812  0.00  0.00    +0.022 A 
BRANCH  17  24
ATOM     23  F1  CHE B   06     20.775  69.512   1.348  0.00  0.00    -0.166 F 
ATOM     24  C1  CHE B   06     17.806  68.826   1.995  0.00  0.00    +0.417 C 
ATOM     25  F2  CHE B   06     18.793  69.215   1.391  0.00  0.00    -0.166 F 
ATOM     26  F3  CHE B   06     21.776  69.132   2.602  0.00  0.00    -0.166 F 
ENDBRANCH  17  24
ENDBRANCH   1  21
TORSDOF 3
ENDMDL
MODEL 4
REMARK VINA RESULT:      -8.7      2.731      5.447
REMARK  Name = dock_mp/CHEMBL1/CHEMBL129678.pdb
REMARK  3 active torsions:
REMARK  status: ('A' for Active; 'I' for Inactive)
REMARK    1  A    between atoms: C1_2  and  C2_5
REMARK    2  A    between atoms: C6_9  and  C7_10
REMARK    3  A    between atoms: C9_14  and  C10_15
REMARK                            x       y       z     vdW  Elec       q    Type
REMARK                         _______ _______ _______ _____ _____    ______ ____
ROOT
ATOM      1  C7  CHE B   06     15.075  65.759   6.123  0.00  0.00    +0.100 A 
ATOM      2  N1  CHE B   06     20.360  68.559   5.404  0.00  0.00    -0.173 NA
ATOM      3  N2  CHE B   06     19.350  68.367   6.198  0.00  0.00    -0.284 N 
ATOM      4  C8  CHE B   06     22.614  70.784   7.068  0.00  0.00    +0.114 A 
ATOM      5  C9  CHE B   06     20.914  69.721   6.989  0.00  0.00    +0.028 A 
ATOM      6  H4  CHE B   06     21.121  69.282   5.913  0.00  0.00    +0.188 HD
ENDROOT
BRANCH   5   7
ATOM      7  C10 CHE B   06     19.005  69.100   7.994  0.00  0.00    -0.004 A 
ATOM      8  C11 CHE B   06     22.995  69.116   7.705  0.00  0.00    +0.029 A 
ATOM      9  C12 CHE B   06     15.104  68.449   9.176  0.00  0.00    +0.112 A 
ATOM     10  N3  CHE B   06     16.169  67.973   9.778  0.00  0.00    -0.255 NA
ATOM     11  C13 CHE B   06     18.155  68.045   9.544  0.00  0.00    +0.072 A 
ATOM     12  C14 CHE B   06     16.235  67.499  10.444  0.00  0.00    +0.028 A 
ATOM     13  C15 CHE B   06     21.209  67.617   9.945  0.00  0.00    +0.002 A 
ATOM     14  C16 CHE B   06     16.154  68.077   9.632  0.00  0.00    +0.001 A 
ATOM     15  C17 CHE B   06     23.053  68.700   8.290  0.00  0.00    +0.010 A 
ATOM     16  C18 CHE B   06     21.067  68.629   8.524  0.00  0.00    +0.008 A 
ENDBRANCH   5   7
BRANCH   1  21
ATOM     17  C2  CHE B   06     21.921  69.801   3.527  0.00  0.00    +0.055 A 
ATOM     18  C3  CHE B   06     21.068  69.293   3.866  0.00  0.00    +0.012 A 
ATOM     19  C4  CHE B   06     14.912  66.024   5.099  0.00  0.00    +0.001 A 
ATOM     20  C5  CHE B   06     18.628  67.570   5.638  0.00  0.00    +0.010 A 
ATOM     21  C6  CHE B   06     20.385  68.507   5.276  0.00  0.00    +0.003 A 
ATOM     22  C19 CHE B   06     20.222  68.771   4.253  0.00  0.00    +0.022 A 
BRANCH  17  24
ATOM     23  F1  CHE B   06     16.994  68.474   1.817  0.00  0.00    -0.166 F 
ATOM     24  C1  CHE B   06     19.941  69.226   2.492  0.00  0.00    +0.417 C 
ATOM     25  F2  CHE B   06     18.948  68.923   1.850  0.00  0.00    -0.166 F 
ATOM     26  F3  CHE B   06     16.053  68.423   3.169  0.00  0.00    -0.166 F 
ENDBRANCH  17  24
ENDBRANCH   1  21
TORSDOF 3
ENDMDL
MODEL 5
REMARK VINA RESULT:      -8.7      3.230      5.072
REMARK  Name = dock_mp/CHEMBL1/CHEMBL129678.pdb
REMARK  3 active torsions:
REMARK  status: ('A' for Active; 'I' for Inactive)
REMARK    1  A    between atoms: C1_2  and  C2_5
REMARK    2  A    between atoms: C6_9  and  C7_10
REMARK    3  A    between atoms: C9_14  and  C10_15
REMARK                            x       y       z     vdW  Elec       q    Type
REMARK                         _______ _______ _______ _____ _____    ______ ____
ROOT
ATOM      1  C7  CHE B   06     22.172  69.511   3.370  0.00  0.00    +0.100 A 
ATOM      2  N1  CHE B   06     17.275  67.141   5.957  0.00  0.00    -0.173 NA
ATOM      3  N2  CHE B   06     18.441  67.677   6.163  0.00  0.00    -0.284 N 
ATOM      4  C8  CHE B   06     15.875  66.379   9.161  0.00  0.00    +0.114 A 
ATOM      5  C9  CHE B   06     17.342  67.102   7.998  0.00  0.00    +0.028 A 
ATOM      6  H4  CHE B   06     16.785  66.878   6.982  0.00  0.00    +0.188 HD
ENDROOT
BRANCH   5   7
ATOM      7  C10 CHE B   06     19.372  68.052   7.858  0.00  0.00    -0.004 A 
ATOM      8  C11 CHE B   06     15.408  68.259   8.360  0.00  0.00    +0.029 A 
ATOM      9  C12 CHE B   06     23.385  68.938   7.471  0.00  0.00    +0.112 A 
ATOM     10  N3  CHE B   06     22.431  69.815   7.684  0.00  0.00    -0.255 NA
ATOM     11  C13 CHE B   06     20.444  69.809   7.924  0.00  0.00    +0.072 A 
ATOM     12  C14 CHE B   06     22.468  70.629   7.770  0.00  0.00    +0.028 A 
ATOM     13  C15 CHE B   06     17.506  70.718   8.380  0.00  0.00    +0.002 A 
ATOM     14  C16 CHE B   06     22.423  69.636   7.665  0.00  0.00    +0.001 A 
ATOM     15  C17 CHE B   06     15.440  68.974   8.436  0.00  0.00    +0.010 A 
ATOM     16  C18 CHE B   06     17.427  68.980   8.196  0.00  0.00    +0.008 A 
ENDBRANCH   5   7
BRANCH   1  21
ATOM     17  C2  CHE B   06     14.626  66.575   5.467  0.00  0.00    +0.055 A 
ATOM     18  C3  CHE B   06     15.578  66.940   5.216  0.00  0.00    +0.012 A 
ATOM     19  C4  CHE B   06     21.524  69.692   2.538  0.00  0.00    +0.001 A 
ATOM     20  C5  CHE B   06     18.913  67.899   5.080  0.00  0.00    +0.010 A 
ATOM     21  C6  CHE B   06     17.208  67.115   5.837  0.00  0.00    +0.003 A 
ATOM     22  C19 CHE B   06     16.561  67.296   5.005  0.00  0.00    +0.022 A 
BRANCH  17  24
ATOM     23  F1  CHE B   06     16.846  69.499   1.532  0.00  0.00    -0.166 F 
ATOM     24  C1  CHE B   06     15.447  67.607   3.574  0.00  0.00    +0.417 C 
ATOM     25  F2  CHE B   06     15.834  68.074   2.514  0.00  0.00    -0.166 F 
ATOM     26  F3  CHE B   06     17.612  70.749   2.285  0.00  0.00    -0.166 F 
ENDBRANCH  17  24
ENDBRANCH   1  21
TORSDOF 3
ENDMDL
MODEL 6
REMARK VINA RESULT:      -8.7      3.551      4.833
REMARK  Name = dock_mp/CHEMBL1/CHEMBL129678.pdb
REMARK  3 active torsions:
REMARK  status: ('A' for Active; 'I' for Inactive)
REMARK    1  A    between atoms: C1_2  and  C2_5
REMARK    2  A    between atoms: C6_9  and  C7_10
REMARK    3  A    between atoms: C9_14  and  C10_15
REMARK                            x       y       z     vdW  Elec       q    Type
REMARK                         _______ _______ _______ _____ _____    ______ ____
ROOT
ATOM      1  C7  CHE B   06     25.704  69.955   8.833  0.00  0.00    +0.100 A 
ATOM      2  N1  CHE B   06     21.819  69.698   4.236  0.00  0.00    -0.173 NA
ATOM      3  N2  CHE B   06     21.952  69.880   5.516  0.00  0.00    -0.284 N 
ATOM      4  C8  CHE B   06     18.334  69.986   3.479  0.00  0.00    +0.114 A 
ATOM      5  C9  CHE B   06     19.872  70.006   4.768  0.00  0.00    +0.028 A 
ATOM      6  H4  CHE B   06     20.692  69.785   3.949  0.00  0.00    +0.188 HD
ENDROOT
BRANCH   5   7
ATOM      7  C10 CHE B   06     20.583  70.249   6.884  0.00  0.00    -0.004 A 
ATOM      8  C11 CHE B   06     18.676  68.214   4.016  0.00  0.00    +0.029 A 
ATOM      9  C12 CHE B   06     22.239  71.480  10.459  0.00  0.00    +0.112 A 
ATOM     10  N3  CHE B   06     21.572  70.365  10.276  0.00  0.00    -0.255 NA
ATOM     11  C13 CHE B   06     20.644  69.427   8.771  0.00  0.00    +0.072 A 
ATOM     12  C14 CHE B   06     21.385  69.765  10.803  0.00  0.00    +0.028 A 
ATOM     13  C15 CHE B   06     19.039  67.346   7.108  0.00  0.00    +0.002 A 
ATOM     14  C16 CHE B   06     21.613  70.496  10.160  0.00  0.00    +0.001 A 
ATOM     15  C17 CHE B   06     18.511  67.687   4.479  0.00  0.00    +0.010 A 
ATOM     16  C18 CHE B   06     19.440  68.625   5.983  0.00  0.00    +0.008 A 
ENDBRANCH   5   7
BRANCH   1  21
ATOM     17  C2  CHE B   06     21.732  69.534   1.485  0.00  0.00    +0.055 A 
ATOM     18  C3  CHE B   06     22.218  69.587   2.414  0.00  0.00    +0.012 A 
ATOM     19  C4  CHE B   06     26.456  69.924   8.073  0.00  0.00    +0.001 A 
ATOM     20  C5  CHE B   06     23.120  69.769   5.763  0.00  0.00    +0.010 A 
ATOM     21  C6  CHE B   06     21.916  69.672   4.139  0.00  0.00    +0.003 A 
ATOM     22  C19 CHE B   06     22.669  69.642   3.379  0.00  0.00    +0.022 A 
BRANCH  17  24
ATOM     23  F1  CHE B   06     26.699  69.997   3.505  0.00  0.00    -0.166 F 
ATOM     24  C1  CHE B   06     23.963  69.589   2.071  0.00  0.00    +0.417 C 
ATOM     25  F2  CHE B   06     25.164  69.571   2.287  0.00  0.00    -0.166 F 
ATOM     26  F3  CHE B   06     26.515  70.717   4.976  0.00  0.00    -0.166 F 
ENDBRANCH  17  24
ENDBRANCH   1  21
TORSDOF 3
ENDMDL
