MODEL 1
REMARK VINA RESULT:      -7.0      0.000      0.000
REMARK  Name = dock_mp/CHEMBL1/CHEMBL129677.pdb
REMARK  3 active torsions:
REMARK  status: ('A' for Active; 'I' for Inactive)
REMARK    1  A    between atoms: C1_1  and  C2_2
REMARK    2  A    between atoms: C6_6  and  C7_7
REMARK    3  A    between atoms: C9_11  and  C10_12
REMARK                            x       y       z     vdW  Elec       q    Type
REMARK                         _______ _______ _______ _____ _____    ______ ____
ROOT
ATOM      1  C7  CHE B   06     20.154  68.598  13.515  0.00  0.00    +0.092 A 
ATOM      2  N1  CHE B   06     20.935  68.872  15.341  0.00  0.00    -0.275 N 
ATOM      3  N2  CHE B   06     17.902  67.423   6.906  0.00  0.00    -0.181 NA
ATOM      4  C8  CHE B   06     19.585  67.290   8.326  0.00  0.00    +0.143 A 
ATOM      5  C9  CHE B   06     21.275  68.092  13.009  0.00  0.00    +0.029 A 
ATOM      6  H7  CHE B   06     19.709  69.112  14.804  0.00  0.00    +0.189 HD
ENDROOT
BRANCH   5   7
ATOM      7  C10 CHE B   06     21.798  67.856  12.773  0.00  0.00    -0.004 A 
ATOM      8  C11 CHE B   06     20.955  70.116   9.563  0.00  0.00    +0.029 A 
ATOM      9  C12 CHE B   06     21.743  68.821  11.003  0.00  0.00    +0.112 A 
ATOM     10  N3  CHE B   06     21.843  71.126   6.471  0.00  0.00    -0.255 NA
ATOM     11  C13 CHE B   06     22.549  69.397   8.845  0.00  0.00    +0.072 A 
ATOM     12  C14 CHE B   06     23.760  67.441  10.991  0.00  0.00    +0.028 A 
ATOM     13  C15 CHE B   06     23.662  68.895   8.343  0.00  0.00    +0.002 A 
ATOM     14  C16 CHE B   06     23.036  69.648   7.728  0.00  0.00    +0.001 A 
ATOM     15  C17 CHE B   06     22.243  70.005   8.085  0.00  0.00    +0.010 A 
ATOM     16  C18 CHE B   06     22.736  66.963  13.248  0.00  0.00    +0.008 A 
ENDBRANCH   5   7
BRANCH   1  22
ATOM     17  C1  CHE B   06     15.227  67.576   8.106  0.00  0.00    +0.065 C 
ATOM     18  C2  CHE B   06     15.285  67.640   8.080  0.00  0.00    +0.039 A 
ATOM     19  C3  CHE B   06     15.127  66.837   9.234  0.00  0.00    +0.023 A 
ATOM     20  C4  CHE B   06     19.082  66.164  16.156  0.00  0.00    +0.004 A 
ATOM     21  C5  CHE B   06     19.772  66.923  15.851  0.00  0.00    +0.030 A 
ATOM     22  C6  CHE B   06     16.513  68.362   8.621  0.00  0.00    +0.089 A 
ATOM     23  N4  CHE B   06     19.847  67.633  14.734  0.00  0.00    -0.250 NA
ENDBRANCH   1  22
TORSDOF 2
ENDMDL
MODEL 2
REMARK VINA RESULT:      -6.6      7.012      9.537
REMARK  Name = dock_mp/CHEMBL1/CHEMBL129677.pdb
REMARK  3 active torsions:
REMARK  status: ('A' for Active; 'I' for Inactive)
REMARK    1  A    between atoms: C1_1  and  C2_2
REMARK    2  A    between atoms: C6_6  and  C7_7
REMARK    3  A    between atoms: C9_11  and  C10_12
REMARK                            x       y       z     vdW  Elec       q    Type
REMARK                         _______ _______ _______ _____ _____    ______ ____
ROOT
ATOM      1  C7  CHE B   06     25.981  69.103   4.693  0.00  0.00    +0.092 A 
ATOM      2  N1  CHE B   06     27.922  68.949   5.170  0.00  0.00    -0.275 N 
ATOM      3  N2  CHE B   06     19.284  69.649   2.461  0.00  0.00    -0.181 NA
ATOM      4  C8  CHE B   06     21.408  69.502   1.884  0.00  0.00    +0.143 A 
ATOM      5  C9  CHE B   06     26.208  69.113   3.382  0.00  0.00    +0.029 A 
ATOM      6  H7  CHE B   06     26.782  69.019   5.907  0.00  0.00    +0.189 HD
ENDROOT
BRANCH   5   7
ATOM      7  C10 CHE B   06     26.314  69.118   2.771  0.00  0.00    -0.004 A 
ATOM      8  C11 CHE B   06     25.683  73.073   3.047  0.00  0.00    +0.029 A 
ATOM      9  C12 CHE B   06     26.073  71.099   2.481  0.00  0.00    +0.112 A 
ATOM     10  N3  CHE B   06     25.517  76.054   1.478  0.00  0.00    -0.255 NA
ATOM     11  C13 CHE B   06     26.005  73.087   1.185  0.00  0.00    +0.072 A 
ATOM     12  C14 CHE B   06     26.596  70.126   0.301  0.00  0.00    +0.028 A 
ATOM     13  C15 CHE B   06     26.231  73.097  -0.116  0.00  0.00    +0.002 A 
ATOM     14  C16 CHE B   06     25.989  74.082   0.438  0.00  0.00    +0.001 A 
ATOM     15  C17 CHE B   06     25.828  74.075   1.365  0.00  0.00    +0.010 A 
ATOM     16  C18 CHE B   06     26.619  68.135   1.853  0.00  0.00    +0.008 A 
ENDBRANCH   5   7
BRANCH   1  22
ATOM     17  C1  CHE B   06     18.621  68.678   5.159  0.00  0.00    +0.065 C 
ATOM     18  C2  CHE B   06     18.643  68.760   5.128  0.00  0.00    +0.039 A 
ATOM     19  C3  CHE B   06     19.365  67.611   5.527  0.00  0.00    +0.023 A 
ATOM     20  C4  CHE B   06     27.137  65.748   5.898  0.00  0.00    +0.004 A 
ATOM     21  C5  CHE B   06     27.400  66.715   5.525  0.00  0.00    +0.030 A 
ATOM     22  C6  CHE B   06     19.895  69.556   4.778  0.00  0.00    +0.089 A 
ATOM     23  N4  CHE B   06     26.646  67.746   5.172  0.00  0.00    -0.250 NA
ENDBRANCH   1  22
TORSDOF 2
ENDMDL
MODEL 3
REMARK VINA RESULT:      -6.5      2.343      6.587
REMARK  Name = dock_mp/CHEMBL1/CHEMBL129677.pdb
REMARK  3 active torsions:
REMARK  status: ('A' for Active; 'I' for Inactive)
REMARK    1  A    between atoms: C1_1  and  C2_2
REMARK    2  A    between atoms: C6_6  and  C7_7
REMARK    3  A    between atoms: C9_11  and  C10_12
REMARK                            x       y       z     vdW  Elec       q    Type
REMARK                         _______ _______ _______ _____ _____    ______ ____
ROOT
ATOM      1  C7  CHE B   06     22.947  67.733   9.762  0.00  0.00    +0.092 A 
ATOM      2  N1  CHE B   06     24.501  67.832   8.499  0.00  0.00    -0.275 N 
ATOM      3  N2  CHE B   06     17.214  67.791  13.915  0.00  0.00    -0.181 NA
ATOM      4  C8  CHE B   06     18.211  68.652  12.146  0.00  0.00    +0.143 A 
ATOM      5  C9  CHE B   06     22.256  68.680   9.134  0.00  0.00    +0.029 A 
ATOM      6  H7  CHE B   06     24.238  67.078   9.598  0.00  0.00    +0.189 HD
ENDROOT
BRANCH   5   7
ATOM      7  C10 CHE B   06     21.934  69.122   8.841  0.00  0.00    -0.004 A 
ATOM      8  C11 CHE B   06     18.898  66.497   8.965  0.00  0.00    +0.029 A 
ATOM      9  C12 CHE B   06     20.190  68.119   8.698  0.00  0.00    +0.112 A 
ATOM     10  N3  CHE B   06     15.684  65.811   8.208  0.00  0.00    -0.255 NA
ATOM     11  C13 CHE B   06     17.916  67.842   8.073  0.00  0.00    +0.072 A 
ATOM     12  C14 CHE B   06     19.835  70.301   7.655  0.00  0.00    +0.028 A 
ATOM     13  C15 CHE B   06     17.230  68.782   7.450  0.00  0.00    +0.002 A 
ATOM     14  C16 CHE B   06     16.727  67.775   7.713  0.00  0.00    +0.001 A 
ATOM     15  C17 CHE B   06     17.215  67.106   8.157  0.00  0.00    +0.010 A 
ATOM     16  C18 CHE B   06     22.244  70.392   8.403  0.00  0.00    +0.008 A 
ENDBRANCH   5   7
BRANCH   1  22
ATOM     17  C1  CHE B   06     19.005  66.414  15.869  0.00  0.00    +0.065 C 
ATOM     18  C2  CHE B   06     18.957  66.388  15.797  0.00  0.00    +0.039 A 
ATOM     19  C3  CHE B   06     20.234  66.967  15.986  0.00  0.00    +0.023 A 
ATOM     20  C4  CHE B   06     26.124  69.233  11.069  0.00  0.00    +0.004 A 
ATOM     21  C5  CHE B   06     25.553  68.921  10.220  0.00  0.00    +0.030 A 
ATOM     22  C6  CHE B   06     19.087  66.338  14.280  0.00  0.00    +0.089 A 
ATOM     23  N4  CHE B   06     24.346  68.380  10.134  0.00  0.00    -0.250 NA
ENDBRANCH   1  22
TORSDOF 2
ENDMDL
MODEL 4
REMARK VINA RESULT:      -6.4      4.707      9.697
REMARK  Name = dock_mp/CHEMBL1/CHEMBL129677.pdb
REMARK  3 active torsions:
REMARK  status: ('A' for Active; 'I' for Inactive)
REMARK    1  A    between atoms: C1_1  and  C2_2
REMARK    2  A    between atoms: C6_6  and  C7_7
REMARK    3  A    between atoms: C9_11  and  C10_12
REMARK                            x       y       z     vdW  Elec       q    Type
REMARK                         _______ _______ _______ _____ _____    ______ ____
ROOT
ATOM      1  C7  CHE B   06     20.792  69.628   5.432  0.00  0.00    +0.092 A 
ATOM      2  N1  CHE B   06     19.248  69.741   6.706  0.00  0.00    -0.275 N 
ATOM      3  N2  CHE B   06     25.865  69.154   0.516  0.00  0.00    -0.181 NA
ATOM      4  C8  CHE B   06     23.699  69.126   0.931  0.00  0.00    +0.143 A 
ATOM      5  C9  CHE B   06     20.019  69.451   4.364  0.00  0.00    +0.029 A 
ATOM      6  H7  CHE B   06     20.596  69.816   6.863  0.00  0.00    +0.189 HD
ENDROOT
BRANCH   5   7
ATOM      7  C10 CHE B   06     19.658  69.369   3.866  0.00  0.00    -0.004 A 
ATOM      8  C11 CHE B   06     17.212  67.433   6.394  0.00  0.00    +0.029 A 
ATOM      9  C12 CHE B   06     18.182  68.343   4.781  0.00  0.00    +0.112 A 
ATOM     10  N3  CHE B   06     14.329  65.741   6.842  0.00  0.00    -0.255 NA
ATOM     11  C13 CHE B   06     16.113  67.182   4.877  0.00  0.00    +0.072 A 
ATOM     12  C14 CHE B   06     17.548  68.544   2.429  0.00  0.00    +0.028 A 
ATOM     13  C15 CHE B   06     15.346  67.007   3.817  0.00  0.00    +0.002 A 
ATOM     14  C16 CHE B   06     15.021  66.588   4.844  0.00  0.00    +0.001 A 
ATOM     15  C17 CHE B   06     15.567  66.713   5.599  0.00  0.00    +0.010 A 
ATOM     16  C18 CHE B   06     19.769  69.739   2.542  0.00  0.00    +0.008 A 
ENDBRANCH   5   7
BRANCH   1  22
ATOM     17  C1  CHE B   06     27.756  68.847   3.093  0.00  0.00    +0.065 C 
ATOM     18  C2  CHE B   06     27.712  68.900   3.036  0.00  0.00    +0.039 A 
ATOM     19  C3  CHE B   06     27.371  68.224   4.230  0.00  0.00    +0.023 A 
ATOM     20  C4  CHE B   06     20.682  67.587   8.574  0.00  0.00    +0.004 A 
ATOM     21  C5  CHE B   06     20.159  68.217   7.885  0.00  0.00    +0.030 A 
ATOM     22  C6  CHE B   06     26.319  69.490   2.846  0.00  0.00    +0.089 A 
ATOM     23  N4  CHE B   06     20.564  68.816   6.774  0.00  0.00    -0.250 NA
ENDBRANCH   1  22
TORSDOF 2
ENDMDL
MODEL 5
REMARK VINA RESULT:      -6.3      2.679      7.799
REMARK  Name = dock_mp/CHEMBL1/CHEMBL129677.pdb
REMARK  3 active torsions:
REMARK  status: ('A' for Active; 'I' for Inactive)
REMARK    1  A    between atoms: C1_1  and  C2_2
REMARK    2  A    between atoms: C6_6  and  C7_7
REMARK    3  A    between atoms: C9_11  and  C10_12
REMARK                            x       y       z     vdW  Elec       q    Type
REMARK                         _______ _______ _______ _____ _____    ______ ____
ROOT
ATOM      1  C7  CHE B   06     21.322  68.424  10.481  0.00  0.00    +0.092 A 
ATOM      2  N1  CHE B   06     20.860  69.741   9.042  0.00  0.00    -0.275 N 
ATOM      3  N2  CHE B   06     22.422  63.829  15.754  0.00  0.00    -0.181 NA
ATOM      4  C8  CHE B   06     20.986  65.177  14.760  0.00  0.00    +0.143 A 
ATOM      5  C9  CHE B   06     20.113  68.462  11.034  0.00  0.00    +0.029 A 
ATOM      6  H7  CHE B   06     21.991  69.054   9.351  0.00  0.00    +0.189 HD
ENDROOT
BRANCH   5   7
ATOM      7  C10 CHE B   06     19.549  68.479  11.291  0.00  0.00    -0.004 A 
ATOM      8  C11 CHE B   06     18.263  67.157   7.725  0.00  0.00    +0.029 A 
ATOM      9  C12 CHE B   06     18.511  67.830   9.688  0.00  0.00    +0.112 A 
ATOM     10  N3  CHE B   06     15.660  66.216   5.798  0.00  0.00    -0.255 NA
ATOM     11  C13 CHE B   06     16.545  67.210   8.510  0.00  0.00    +0.072 A 
ATOM     12  C14 CHE B   06     16.884  68.222  11.470  0.00  0.00    +0.028 A 
ATOM     13  C15 CHE B   06     15.345  67.248   9.058  0.00  0.00    +0.002 A 
ATOM     14  C16 CHE B   06     15.471  66.903   7.962  0.00  0.00    +0.001 A 
ATOM     15  C17 CHE B   06     16.326  66.876   7.571  0.00  0.00    +0.010 A 
ATOM     16  C18 CHE B   06     19.086  68.834  12.541  0.00  0.00    +0.008 A 
ENDBRANCH   5   7
BRANCH   1  22
ATOM     17  C1  CHE B   06     25.314  64.377  15.199  0.00  0.00    +0.065 C 
ATOM     18  C2  CHE B   06     25.251  64.324  15.162  0.00  0.00    +0.039 A 
ATOM     19  C3  CHE B   06     25.621  65.683  15.031  0.00  0.00    +0.023 A 
ATOM     20  C4  CHE B   06     22.885  71.824  10.693  0.00  0.00    +0.004 A 
ATOM     21  C5  CHE B   06     22.133  71.199  10.259  0.00  0.00    +0.030 A 
ATOM     22  C6  CHE B   06     24.109  64.428  14.158  0.00  0.00    +0.089 A 
ATOM     23  N4  CHE B   06     21.854  69.917  10.443  0.00  0.00    -0.250 NA
ENDBRANCH   1  22
TORSDOF 2
ENDMDL
MODEL 6
REMARK VINA RESULT:      -6.3      1.931      6.543
REMARK  Name = dock_mp/CHEMBL1/CHEMBL129677.pdb
REMARK  3 active torsions:
REMARK  status: ('A' for Active; 'I' for Inactive)
REMARK    1  A    between atoms: C1_1  and  C2_2
REMARK    2  A    between atoms: C6_6  and  C7_7
REMARK    3  A    between atoms: C9_11  and  C10_12
REMARK                            x       y       z     vdW  Elec       q    Type
REMARK                         _______ _______ _______ _____ _____    ______ ____
ROOT
ATOM      1  C7  CHE B   06     19.975  67.153   8.695  0.00  0.00    +0.092 A 
ATOM      2  N1  CHE B   06     19.917  67.024   6.695  0.00  0.00    -0.275 N 
ATOM      3  N2  CHE B   06     20.489  68.080  15.695  0.00  0.00    -0.181 NA
ATOM      4  C8  CHE B   06     21.015  68.848  13.695  0.00  0.00    +0.143 A 
ATOM      5  C9  CHE B   06     20.701  68.267   8.695  0.00  0.00    +0.029 A 
ATOM      6  H7  CHE B   06     19.405  66.259   7.694  0.00  0.00    +0.189 HD
ENDROOT
BRANCH   5   7
ATOM      7  C10 CHE B   06     21.039  68.786   8.695  0.00  0.00    -0.004 A 
ATOM      8  C11 CHE B   06     23.262  66.919  11.469  0.00  0.00    +0.029 A 
ATOM      9  C12 CHE B   06     22.388  68.217  10.082  0.00  0.00    +0.112 A 
ATOM     10  N3  CHE B   06     25.913  67.028  13.550  0.00  0.00    -0.255 NA
ATOM     11  C13 CHE B   06     24.294  68.502  11.470  0.00  0.00    +0.072 A 
ATOM     12  C14 CHE B   06     23.002  70.479   9.390  0.00  0.00    +0.028 A 
ATOM     13  C15 CHE B   06     25.015  69.608  11.470  0.00  0.00    +0.002 A 
ATOM     14  C16 CHE B   06     25.302  68.728  12.163  0.00  0.00    +0.001 A 
ATOM     15  C17 CHE B   06     24.788  67.941  12.163  0.00  0.00    +0.010 A 
ATOM     16  C18 CHE B   06     20.955  69.976   8.002  0.00  0.00    +0.008 A 
ENDBRANCH   5   7
BRANCH   1  22
ATOM     17  C1  CHE B   06     18.182  66.353  15.816  0.00  0.00    +0.065 C 
ATOM     18  C2  CHE B   06     18.269  66.331  15.806  0.00  0.00    +0.039 A 
ATOM     19  C3  CHE B   06     17.237  66.770  14.944  0.00  0.00    +0.023 A 
ATOM     20  C4  CHE B   06     16.784  68.314   7.107  0.00  0.00    +0.004 A 
ATOM     21  C5  CHE B   06     17.815  68.054   6.982  0.00  0.00    +0.030 A 
ATOM     22  C6  CHE B   06     19.308  66.248  14.694  0.00  0.00    +0.089 A 
ATOM     23  N4  CHE B   06     18.721  67.647   7.859  0.00  0.00    -0.250 NA
ENDBRANCH   1  22
TORSDOF 2
ENDMDL
MODEL 7
REMARK VINA RESULT:      -6.2      2.604      5.401
REMARK  Name = dock_mp/CHEMBL1/CHEMBL129677.pdb
REMARK  3 active torsions:
REMARK  status: ('A' for Active; 'I' for Inactive)
REMARK    1  A    between atoms: C1_1  and  C2_2
REMARK    2  A    between atoms: C6_6  and  C7_7
REMARK    3  A    between atoms: C9_11  and  C10_12
REMARK                            x       y       z     vdW  Elec       q    Type
REMARK                         _______ _______ _______ _____ _____    ______ ____
ROOT
ATOM      1  C7  CHE B   06     20.819  69.812   9.993  0.00  0.00    +0.092 A 
ATOM      2  N1  CHE B   06     22.578  70.575  10.577  0.00  0.00    -0.275 N 
ATOM      3  N2  CHE B   06     14.557  66.890   8.450  0.00  0.00    -0.181 NA
ATOM      4  C8  CHE B   06     16.123  67.183   9.975  0.00  0.00    +0.143 A 
ATOM      5  C9  CHE B   06     20.578  69.227  11.163  0.00  0.00    +0.029 A 
ATOM      6  H7  CHE B   06     21.878  70.628   9.414  0.00  0.00    +0.189 HD
ENDROOT
BRANCH   5   7
ATOM      7  C10 CHE B   06     20.466  68.954  11.708  0.00  0.00    -0.004 A 
ATOM      8  C11 CHE B   06     23.922  67.018  11.054  0.00  0.00    +0.029 A 
ATOM      9  C12 CHE B   06     22.115  67.795  11.764  0.00  0.00    +0.112 A 
ATOM     10  N3  CHE B   06     26.187  64.773  12.149  0.00  0.00    -0.255 NA
ATOM     11  C13 CHE B   06     23.579  66.187  12.717  0.00  0.00    +0.072 A 
ATOM     12  C14 CHE B   06     20.863  67.337  13.812  0.00  0.00    +0.028 A 
ATOM     13  C15 CHE B   06     23.341  65.607  13.878  0.00  0.00    +0.002 A 
ATOM     14  C16 CHE B   06     24.294  65.339  13.281  0.00  0.00    +0.001 A 
ATOM     15  C17 CHE B   06     24.464  65.752  12.454  0.00  0.00    +0.010 A 
ATOM     16  C18 CHE B   06     19.445  69.059  12.631  0.00  0.00    +0.008 A 
ENDBRANCH   5   7
BRANCH   1  22
ATOM     17  C1  CHE B   06     15.405  67.709   5.427  0.00  0.00    +0.065 C 
ATOM     18  C2  CHE B   06     15.369  67.728   5.508  0.00  0.00    +0.039 A 
ATOM     19  C3  CHE B   06     16.676  67.746   4.966  0.00  0.00    +0.023 A 
ATOM     20  C4  CHE B   06     23.898  69.602   7.866  0.00  0.00    +0.004 A 
ATOM     21  C5  CHE B   06     23.471  69.828   8.821  0.00  0.00    +0.030 A 
ATOM     22  C6  CHE B   06     15.818  68.199   6.885  0.00  0.00    +0.089 A 
ATOM     23  N4  CHE B   06     22.217  69.782   9.246  0.00  0.00    -0.250 NA
ENDBRANCH   1  22
TORSDOF 2
ENDMDL
MODEL 8
REMARK VINA RESULT:      -6.2      2.770      5.928
REMARK  Name = dock_mp/CHEMBL1/CHEMBL129677.pdb
REMARK  3 active torsions:
REMARK  status: ('A' for Active; 'I' for Inactive)
REMARK    1  A    between atoms: C1_1  and  C2_2
REMARK    2  A    between atoms: C6_6  and  C7_7
REMARK    3  A    between atoms: C9_11  and  C10_12
REMARK                            x       y       z     vdW  Elec       q    Type
REMARK                         _______ _______ _______ _____ _____    ______ ____
ROOT
ATOM      1  C7  CHE B   06     21.675  67.889  10.850  0.00  0.00    +0.092 A 
ATOM      2  N1  CHE B   06     22.511  67.540  12.639  0.00  0.00    -0.275 N 
ATOM      3  N2  CHE B   06     18.260  69.294   4.810  0.00  0.00    -0.181 NA
ATOM      4  C8  CHE B   06     18.171  69.289   7.014  0.00  0.00    +0.143 A 
ATOM      5  C9  CHE B   06     20.526  68.317  11.366  0.00  0.00    +0.029 A 
ATOM      6  H7  CHE B   06     22.948  67.396  11.361  0.00  0.00    +0.189 HD
ENDROOT
BRANCH   5   7
ATOM      7  C10 CHE B   06     19.991  68.516  11.607  0.00  0.00    -0.004 A 
ATOM      8  C11 CHE B   06     18.284  66.442   8.621  0.00  0.00    +0.029 A 
ATOM      9  C12 CHE B   06     18.762  67.619  10.283  0.00  0.00    +0.112 A 
ATOM     10  N3  CHE B   06     15.447  65.467   7.082  0.00  0.00    -0.255 NA
ATOM     11  C13 CHE B   06     16.652  67.050   9.354  0.00  0.00    +0.072 A 
ATOM     12  C14 CHE B   06     17.338  68.826  11.860  0.00  0.00    +0.028 A 
ATOM     13  C15 CHE B   06     15.511  67.474   9.866  0.00  0.00    +0.002 A 
ATOM     14  C16 CHE B   06     15.510  66.797   8.929  0.00  0.00    +0.001 A 
ATOM     15  C17 CHE B   06     16.322  66.495   8.564  0.00  0.00    +0.010 A 
ATOM     16  C18 CHE B   06     19.672  69.311  12.687  0.00  0.00    +0.008 A 
ENDBRANCH   5   7
BRANCH   1  22
ATOM     17  C1  CHE B   06     20.990  69.289   3.629  0.00  0.00    +0.065 C 
ATOM     18  C2  CHE B   06     20.931  69.224   3.652  0.00  0.00    +0.039 A 
ATOM     19  C3  CHE B   06     21.899  69.983   4.350  0.00  0.00    +0.023 A 
ATOM     20  C4  CHE B   06     24.373  70.246  11.954  0.00  0.00    +0.004 A 
ATOM     21  C5  CHE B   06     23.677  69.478  12.221  0.00  0.00    +0.030 A 
ATOM     22  C6  CHE B   06     20.500  68.442   4.886  0.00  0.00    +0.089 A 
ATOM     23  N4  CHE B   06     22.793  68.813  11.491  0.00  0.00    -0.250 NA
ENDBRANCH   1  22
TORSDOF 2
ENDMDL
MODEL 9
REMARK VINA RESULT:      -6.2      3.300      7.642
REMARK  Name = dock_mp/CHEMBL1/CHEMBL129677.pdb
REMARK  3 active torsions:
REMARK  status: ('A' for Active; 'I' for Inactive)
REMARK    1  A    between atoms: C1_1  and  C2_2
REMARK    2  A    between atoms: C6_6  and  C7_7
REMARK    3  A    between atoms: C9_11  and  C10_12
REMARK                            x       y       z     vdW  Elec       q    Type
REMARK                         _______ _______ _______ _____ _____    ______ ____
ROOT
ATOM      1  C7  CHE B   06     19.046  67.335   9.610  0.00  0.00    +0.092 A 
ATOM      2  N1  CHE B   06     17.041  67.363   9.602  0.00  0.00    -0.275 N 
ATOM      3  N2  CHE B   06     26.108  67.578   9.182  0.00  0.00    -0.181 NA
ATOM      4  C8  CHE B   06     24.191  68.246   8.321  0.00  0.00    +0.143 A 
ATOM      5  C9  CHE B   06     19.154  68.130   8.549  0.00  0.00    +0.029 A 
ATOM      6  H7  CHE B   06     17.963  66.757  10.396  0.00  0.00    +0.189 HD
ENDROOT
BRANCH   5   7
ATOM      7  C10 CHE B   06     19.204  68.501   8.055  0.00  0.00    -0.004 A 
ATOM      8  C11 CHE B   06     16.286  66.227   6.493  0.00  0.00    +0.029 A 
ATOM      9  C12 CHE B   06     17.780  67.624   6.927  0.00  0.00    +0.112 A 
ATOM     10  N3  CHE B   06     14.244  65.600   3.883  0.00  0.00    -0.255 NA
ATOM     11  C13 CHE B   06     16.439  67.357   4.985  0.00  0.00    +0.072 A 
ATOM     12  C14 CHE B   06     18.684  69.473   5.609  0.00  0.00    +0.028 A 
ATOM     13  C15 CHE B   06     16.547  68.146   3.933  0.00  0.00    +0.002 A 
ATOM     14  C16 CHE B   06     15.777  67.284   3.935  0.00  0.00    +0.001 A 
ATOM     15  C17 CHE B   06     15.701  66.722   4.685  0.00  0.00    +0.010 A 
ATOM     16  C18 CHE B   06     20.003  69.585   7.758  0.00  0.00    +0.008 A 
ENDBRANCH   5   7
BRANCH   1  22
ATOM     17  C1  CHE B   06     25.964  66.508  12.064  0.00  0.00    +0.065 C 
ATOM     18  C2  CHE B   06     25.960  66.479  11.979  0.00  0.00    +0.039 A 
ATOM     19  C3  CHE B   06     25.033  67.035  12.890  0.00  0.00    +0.023 A 
ATOM     20  C4  CHE B   06     17.244  68.829  12.537  0.00  0.00    +0.004 A 
ATOM     21  C5  CHE B   06     17.195  68.479  11.527  0.00  0.00    +0.030 A 
ATOM     22  C6  CHE B   06     24.935  66.331  10.861  0.00  0.00    +0.089 A 
ATOM     23  N4  CHE B   06     18.129  67.966  10.739  0.00  0.00    -0.250 NA
ENDBRANCH   1  22
TORSDOF 2
ENDMDL
MODEL 10
REMARK VINA RESULT:      -6.2      3.198      6.259
REMARK  Name = dock_mp/CHEMBL1/CHEMBL129677.pdb
REMARK  3 active torsions:
REMARK  status: ('A' for Active; 'I' for Inactive)
REMARK    1  A    between atoms: C1_1  and  C2_2
REMARK    2  A    between atoms: C6_6  and  C7_7
REMARK    3  A    between atoms: C9_11  and  C10_12
REMARK                            x       y       z     vdW  Elec       q    Type
REMARK                         _______ _______ _______ _____ _____    ______ ____
ROOT
ATOM      1  C7  CHE B   06     23.716  67.624   9.683  0.00  0.00    +0.092 A 
ATOM      2  N1  CHE B   06     24.853  66.983  11.205  0.00  0.00    -0.275 N 
ATOM      3  N2  CHE B   06     19.355  70.123   4.697  0.00  0.00    -0.181 NA
ATOM      4  C8  CHE B   06     19.778  69.961   6.856  0.00  0.00    +0.143 A 
ATOM      5  C9  CHE B   06     22.828  68.219  10.475  0.00  0.00    +0.029 A 
ATOM      6  H7  CHE B   06     24.945  66.860   9.855  0.00  0.00    +0.189 HD
ENDROOT
BRANCH   5   7
ATOM      7  C10 CHE B   06     22.414  68.497  10.844  0.00  0.00    -0.004 A 
ATOM      8  C11 CHE B   06     19.669  66.801   8.455  0.00  0.00    +0.029 A 
ATOM      9  C12 CHE B   06     20.752  67.844   9.909  0.00  0.00    +0.112 A 
ATOM     10  N3  CHE B   06     16.408  66.335   7.736  0.00  0.00    -0.255 NA
ATOM     11  C13 CHE B   06     18.408  67.647   9.580  0.00  0.00    +0.072 A 
ATOM     12  C14 CHE B   06     20.008  69.227  11.781  0.00  0.00    +0.028 A 
ATOM     13  C15 CHE B   06     17.527  68.237  10.366  0.00  0.00    +0.002 A 
ATOM     14  C16 CHE B   06     17.170  67.593   9.475  0.00  0.00    +0.001 A 
ATOM     15  C17 CHE B   06     17.797  67.172   8.916  0.00  0.00    +0.010 A 
ATOM     16  C18 CHE B   06     22.525  69.307  11.955  0.00  0.00    +0.008 A 
ENDBRANCH   5   7
BRANCH   1  22
ATOM     17  C1  CHE B   06     21.726  69.602   2.850  0.00  0.00    +0.065 C 
ATOM     18  C2  CHE B   06     21.658  69.556   2.887  0.00  0.00    +0.039 A 
ATOM     19  C3  CHE B   06     22.948  69.956   3.306  0.00  0.00    +0.023 A 
ATOM     20  C4  CHE B   06     27.176  69.022  10.034  0.00  0.00    +0.004 A 
ATOM     21  C5  CHE B   06     26.371  68.476  10.480  0.00  0.00    +0.030 A 
ATOM     22  C6  CHE B   06     21.331  68.858   4.202  0.00  0.00    +0.089 A 
ATOM     23  N4  CHE B   06     25.179  68.142  10.007  0.00  0.00    -0.250 NA
ENDBRANCH   1  22
TORSDOF 2
ENDMDL
