MODEL 1
REMARK VINA RESULT:      -9.6      0.000      0.000
REMARK  Name = dock_mp/CHEMBL1/CHEMBL126180.pdb
REMARK  4 active torsions:
REMARK  status: ('A' for Active; 'I' for Inactive)
REMARK    1  A    between atoms: C1_1  and  C2_2
REMARK    2  A    between atoms: C1_1  and  N1_8
REMARK    3  A    between atoms: C9_10  and  C10_11
REMARK    4  A    between atoms: C19_21  and  C20_22
REMARK                            x       y       z     vdW  Elec       q    Type
REMARK                         _______ _______ _______ _____ _____    ______ ____
ROOT
ATOM      1  N1  CHE B   01     20.483  69.622   2.664  0.00  0.00    -0.266 N 
ATOM      2  C8  CHE B   01     20.333  69.331   4.894  0.00  0.00    +0.118 A 
ATOM      3  C9  CHE B   01     21.924  68.223  10.637  0.00  0.00    +0.030 A 
ATOM      4  C19 CHE B   01     19.678  69.561   4.119  0.00  0.00    +0.119 A 
ATOM      5  N4  CHE B   01     22.686  68.443   8.121  0.00  0.00    -0.169 NA
ENDROOT
BRANCH   3   6
ATOM      6  C10 CHE B   01     20.788  68.355  11.166  0.00  0.00    -0.004 A 
ATOM      7  C11 CHE B   01     17.162  67.342   4.104  0.00  0.00    +0.029 A 
ATOM      8  C12 CHE B   01     19.095  68.372  10.860  0.00  0.00    +0.112 A 
ATOM      9  N2  CHE B   01     17.736  68.350  10.399  0.00  0.00    -0.255 NA
ATOM     10  C13 CHE B   01     16.148  67.818   6.763  0.00  0.00    +0.072 A 
ATOM     11  C14 CHE B   01     16.475  68.317   9.892  0.00  0.00    +0.028 A 
ATOM     12  C15 CHE B   01     17.023  68.433  10.731  0.00  0.00    +0.002 A 
ATOM     13  C16 CHE B   01     15.064  67.406   3.987  0.00  0.00    +0.001 A 
ATOM     14  C17 CHE B   01     16.037  67.293   3.534  0.00  0.00    +0.010 A 
ATOM     15  C18 CHE B   01     16.369  67.434   4.473  0.00  0.00    +0.008 A 
ENDBRANCH   3   6
BRANCH   4  16
ATOM     16  C20 CHE B   01     20.446  69.010   7.003  0.00  0.00    +0.091 A 
ATOM     17  C21 CHE B   01     19.868  69.337   6.217  0.00  0.00    +0.030 A 
ATOM     18  C22 CHE B   01     19.500  69.500   6.418  0.00  0.00    +0.004 A 
ATOM     19  C23 CHE B   01     21.244  68.377  10.972  0.00  0.00    +0.020 A 
ATOM     20  C24 CHE B   01     18.024  70.436   2.820  0.00  0.00    +0.111 A 
ATOM     21  N3  CHE B   01     20.664  68.844   7.985  0.00  0.00    -0.253 NA
ENDBRANCH   4  16
BRANCH   1  22
ATOM     22  C1  CHE B   01     21.932  69.300   3.070  0.00  0.00    +0.178 C 
BRANCH  22  23
ATOM     23  C2  CHE B   01     25.233  69.496   6.984  0.00  0.00    -0.026 A 
ATOM     24  C3  CHE B   01     25.613  69.481   5.658  0.00  0.00    +0.005 A 
ATOM     25  C4  CHE B   01     24.191  69.330   0.764  0.00  0.00    +0.000 A 
ATOM     26  C5  CHE B   01     25.665  69.435   3.376  0.00  0.00    +0.000 A 
ATOM     27  C6  CHE B   01     24.805  69.415   3.825  0.00  0.00    +0.000 A 
ATOM     28  C7  CHE B   01     26.218  69.567   8.724  0.00  0.00    +0.005 A 
ENDBRANCH  22  23
ENDBRANCH   1  22
TORSDOF 4
ENDMDL
MODEL 2
REMARK VINA RESULT:      -9.3      2.171      6.415
REMARK  Name = dock_mp/CHEMBL1/CHEMBL126180.pdb
REMARK  4 active torsions:
REMARK  status: ('A' for Active; 'I' for Inactive)
REMARK    1  A    between atoms: C1_1  and  C2_2
REMARK    2  A    between atoms: C1_1  and  N1_8
REMARK    3  A    between atoms: C9_10  and  C10_11
REMARK    4  A    between atoms: C19_21  and  C20_22
REMARK                            x       y       z     vdW  Elec       q    Type
REMARK                         _______ _______ _______ _____ _____    ______ ____
ROOT
ATOM      1  N1  CHE B   01     17.175  67.422   7.423  0.00  0.00    -0.266 N 
ATOM      2  C8  CHE B   01     19.303  67.766   8.083  0.00  0.00    +0.118 A 
ATOM      3  C9  CHE B   01     24.965  69.925   8.239  0.00  0.00    +0.030 A 
ATOM      4  C19 CHE B   01     18.498  67.191   8.406  0.00  0.00    +0.119 A 
ATOM      5  N4  CHE B   01     22.620  69.919   7.031  0.00  0.00    -0.169 NA
ENDROOT
BRANCH   3   6
ATOM      6  C10 CHE B   01     25.367  69.298   9.255  0.00  0.00    -0.004 A 
ATOM      7  C11 CHE B   01     17.893  68.584  12.023  0.00  0.00    +0.029 A 
ATOM      8  C12 CHE B   01     24.872  68.524  10.710  0.00  0.00    +0.112 A 
ATOM      9  N2  CHE B   01     24.259  67.935  11.866  0.00  0.00    -0.255 NA
ATOM     10  C13 CHE B   01     20.442  67.703  13.049  0.00  0.00    +0.072 A 
ATOM     11  C14 CHE B   01     23.610  67.400  12.934  0.00  0.00    +0.028 A 
ATOM     12  C15 CHE B   01     24.511  67.542  12.503  0.00  0.00    +0.002 A 
ATOM     13  C16 CHE B   01     17.541  67.587  13.841  0.00  0.00    +0.001 A 
ATOM     14  C17 CHE B   01     17.196  68.124  12.970  0.00  0.00    +0.010 A 
ATOM     15  C18 CHE B   01     18.174  68.146  12.733  0.00  0.00    +0.008 A 
ENDBRANCH   3   6
BRANCH   4  16
ATOM     16  C20 CHE B   01     21.338  68.255   8.508  0.00  0.00    +0.091 A 
ATOM     17  C21 CHE B   01     20.497  67.755   8.824  0.00  0.00    +0.030 A 
ATOM     18  C22 CHE B   01     20.618  67.589   9.224  0.00  0.00    +0.004 A 
ATOM     19  C23 CHE B   01     25.200  69.572   8.891  0.00  0.00    +0.020 A 
ATOM     20  C24 CHE B   01     16.979  65.965   9.580  0.00  0.00    +0.111 A 
ATOM     21  N3  CHE B   01     22.297  68.593   8.584  0.00  0.00    -0.253 NA
ENDBRANCH   4  16
BRANCH   1  22
ATOM     22  C1  CHE B   01     17.699  68.435   6.390  0.00  0.00    +0.178 C 
BRANCH  22  23
ATOM     23  C2  CHE B   01     21.659  69.472   3.308  0.00  0.00    -0.026 A 
ATOM     24  C3  CHE B   01     20.390  69.178   2.855  0.00  0.00    +0.005 A 
ATOM     25  C4  CHE B   01     15.568  67.983   4.007  0.00  0.00    +0.000 A 
ATOM     26  C5  CHE B   01     18.177  68.648   2.679  0.00  0.00    +0.000 A 
ATOM     27  C6  CHE B   01     18.571  68.720   3.562  0.00  0.00    +0.000 A 
ATOM     28  C7  CHE B   01     23.396  69.915   2.420  0.00  0.00    +0.005 A 
ENDBRANCH  22  23
ENDBRANCH   1  22
TORSDOF 4
ENDMDL
MODEL 3
REMARK VINA RESULT:      -9.3      3.843      8.001
REMARK  Name = dock_mp/CHEMBL1/CHEMBL126180.pdb
REMARK  4 active torsions:
REMARK  status: ('A' for Active; 'I' for Inactive)
REMARK    1  A    between atoms: C1_1  and  C2_2
REMARK    2  A    between atoms: C1_1  and  N1_8
REMARK    3  A    between atoms: C9_10  and  C10_11
REMARK    4  A    between atoms: C19_21  and  C20_22
REMARK                            x       y       z     vdW  Elec       q    Type
REMARK                         _______ _______ _______ _____ _____    ______ ____
ROOT
ATOM      1  N1  CHE B   01     17.199  67.773   9.115  0.00  0.00    -0.266 N 
ATOM      2  C8  CHE B   01     19.100  68.420  10.137  0.00  0.00    +0.118 A 
ATOM      3  C9  CHE B   01     24.332  71.291  11.200  0.00  0.00    +0.030 A 
ATOM      4  C19 CHE B   01     18.319  67.764  10.345  0.00  0.00    +0.119 A 
ATOM      5  N4  CHE B   01     22.288  70.922   9.573  0.00  0.00    -0.169 NA
ENDROOT
BRANCH   3   6
ATOM      6  C10 CHE B   01     24.596  70.774  12.318  0.00  0.00    -0.004 A 
ATOM      7  C11 CHE B   01     25.853  63.626   8.946  0.00  0.00    +0.029 A 
ATOM      8  C12 CHE B   01     25.040  69.317  13.117  0.00  0.00    +0.112 A 
ATOM      9  N2  CHE B   01     25.408  68.011  13.588  0.00  0.00    -0.255 NA
ATOM     10  C13 CHE B   01     25.984  64.540  11.680  0.00  0.00    +0.072 A 
ATOM     11  C14 CHE B   01     25.752  66.751  13.961  0.00  0.00    +0.028 A 
ATOM     12  C15 CHE B   01     25.573  67.687  14.289  0.00  0.00    +0.002 A 
ATOM     13  C16 CHE B   01     26.392  61.985  10.145  0.00  0.00    +0.001 A 
ATOM     14  C17 CHE B   01     26.166  62.428   9.186  0.00  0.00    +0.010 A 
ATOM     15  C18 CHE B   01     26.037  63.266   9.727  0.00  0.00    +0.008 A 
ENDBRANCH   3   6
BRANCH   4  16
ATOM     16  C20 CHE B   01     20.941  69.187  10.903  0.00  0.00    +0.091 A 
ATOM     17  C21 CHE B   01     20.070  68.681  11.109  0.00  0.00    +0.030 A 
ATOM     18  C22 CHE B   01     20.073  68.645  11.557  0.00  0.00    +0.004 A 
ATOM     19  C23 CHE B   01     24.439  71.062  11.922  0.00  0.00    +0.020 A 
ATOM     20  C24 CHE B   01     16.580  66.703  11.365  0.00  0.00    +0.111 A 
ATOM     21  N3  CHE B   01     21.815  69.658  11.135  0.00  0.00    -0.253 NA
ENDBRANCH   4  16
BRANCH   1  22
ATOM     22  C1  CHE B   01     17.796  68.789   8.126  0.00  0.00    +0.178 C 
BRANCH  22  23
ATOM     23  C2  CHE B   01     20.929  69.236   4.096  0.00  0.00    -0.026 A 
ATOM     24  C3  CHE B   01     19.610  68.843   4.004  0.00  0.00    +0.005 A 
ATOM     25  C4  CHE B   01     15.227  67.850   6.411  0.00  0.00    +0.000 A 
ATOM     26  C5  CHE B   01     17.444  68.265   4.431  0.00  0.00    +0.000 A 
ATOM     27  C6  CHE B   01     18.016  68.515   5.173  0.00  0.00    +0.000 A 
ATOM     28  C7  CHE B   01     22.405  69.512   2.773  0.00  0.00    +0.005 A 
ENDBRANCH  22  23
ENDBRANCH   1  22
TORSDOF 4
ENDMDL
MODEL 4
REMARK VINA RESULT:      -9.3      3.107      8.843
REMARK  Name = dock_mp/CHEMBL1/CHEMBL126180.pdb
REMARK  4 active torsions:
REMARK  status: ('A' for Active; 'I' for Inactive)
REMARK    1  A    between atoms: C1_1  and  C2_2
REMARK    2  A    between atoms: C1_1  and  N1_8
REMARK    3  A    between atoms: C9_10  and  C10_11
REMARK    4  A    between atoms: C19_21  and  C20_22
REMARK                            x       y       z     vdW  Elec       q    Type
REMARK                         _______ _______ _______ _____ _____    ______ ____
ROOT
ATOM      1  N1  CHE B   01     22.314  69.286  12.619  0.00  0.00    -0.266 N 
ATOM      2  C8  CHE B   01     21.061  68.964  10.773  0.00  0.00    +0.118 A 
ATOM      3  C9  CHE B   01     16.745  66.837   7.088  0.00  0.00    +0.030 A 
ATOM      4  C19 CHE B   01     21.888  69.542  11.031  0.00  0.00    +0.119 A 
ATOM      5  N4  CHE B   01     17.828  66.808   9.493  0.00  0.00    -0.169 NA
ENDROOT
BRANCH   3   6
ATOM      6  C10 CHE B   01     17.057  67.485   6.054  0.00  0.00    -0.004 A 
ATOM      7  C11 CHE B   01     24.480  68.675   8.796  0.00  0.00    +0.029 A 
ATOM      8  C12 CHE B   01     18.325  68.342   5.268  0.00  0.00    +0.112 A 
ATOM      9  N2  CHE B   01     19.502  69.008   4.786  0.00  0.00    -0.255 NA
ATOM     10  C13 CHE B   01     23.152  69.474   6.362  0.00  0.00    +0.072 A 
ATOM     11  C14 CHE B   01     20.652  69.617   4.394  0.00  0.00    +0.028 A 
ATOM     12  C15 CHE B   01     19.698  69.415   4.138  0.00  0.00    +0.002 A 
ATOM     13  C16 CHE B   01     25.860  69.763   7.641  0.00  0.00    +0.001 A 
ATOM     14  C17 CHE B   01     25.592  69.207   8.528  0.00  0.00    +0.010 A 
ATOM     15  C18 CHE B   01     24.698  69.128   8.074  0.00  0.00    +0.008 A 
ENDBRANCH   3   6
BRANCH   4  16
ATOM     16  C20 CHE B   01     19.737  68.494   9.164  0.00  0.00    +0.091 A 
ATOM     17  C21 CHE B   01     20.501  69.100   9.492  0.00  0.00    +0.030 A 
ATOM     18  C22 CHE B   01     20.554  69.393   9.155  0.00  0.00    +0.004 A 
ATOM     19  C23 CHE B   01     16.902  67.276   6.467  0.00  0.00    +0.020 A 
ATOM     20  C24 CHE B   01     23.488  71.151  11.230  0.00  0.00    +0.111 A 
ATOM     21  N3  CHE B   01     19.026  68.175   8.507  0.00  0.00    -0.253 NA
ENDBRANCH   4  16
BRANCH   1  22
ATOM     22  C1  CHE B   01     21.269  68.255  13.083  0.00  0.00    +0.178 C 
BRANCH  22  23
ATOM     23  C2  CHE B   01     20.430  64.510  16.478  0.00  0.00    -0.026 A 
ATOM     24  C3  CHE B   01     19.427  65.249  15.886  0.00  0.00    +0.005 A 
ATOM     25  C4  CHE B   01     18.152  68.976  12.648  0.00  0.00    +0.000 A 
ATOM     26  C5  CHE B   01     18.219  66.734  14.643  0.00  0.00    +0.000 A 
ATOM     27  C6  CHE B   01     19.186  66.742  14.571  0.00  0.00    +0.000 A 
ATOM     28  C7  CHE B   01     20.472  63.015  17.808  0.00  0.00    +0.005 A 
ENDBRANCH  22  23
ENDBRANCH   1  22
TORSDOF 4
ENDMDL
MODEL 5
REMARK VINA RESULT:      -9.2      2.129      6.140
REMARK  Name = dock_mp/CHEMBL1/CHEMBL126180.pdb
REMARK  4 active torsions:
REMARK  status: ('A' for Active; 'I' for Inactive)
REMARK    1  A    between atoms: C1_1  and  C2_2
REMARK    2  A    between atoms: C1_1  and  N1_8
REMARK    3  A    between atoms: C9_10  and  C10_11
REMARK    4  A    between atoms: C19_21  and  C20_22
REMARK                            x       y       z     vdW  Elec       q    Type
REMARK                         _______ _______ _______ _____ _____    ______ ____
ROOT
ATOM      1  N1  CHE B   01     20.493  67.499   9.693  0.00  0.00    -0.266 N 
ATOM      2  C8  CHE B   01     20.405  67.992   7.495  0.00  0.00    +0.118 A 
ATOM      3  C9  CHE B   01     22.012  70.051   2.025  0.00  0.00    +0.030 A 
ATOM      4  C19 CHE B   01     19.779  67.537   8.191  0.00  0.00    +0.119 A 
ATOM      5  N4  CHE B   01     22.664  69.734   4.562  0.00  0.00    -0.169 NA
ENDROOT
BRANCH   3   6
ATOM      6  C10 CHE B   01     20.969  69.726   1.398  0.00  0.00    -0.004 A 
ATOM      7  C11 CHE B   01     16.831  69.077   8.217  0.00  0.00    +0.029 A 
ATOM      8  C12 CHE B   01     19.313  69.290   1.566  0.00  0.00    +0.112 A 
ATOM      9  N2  CHE B   01     17.964  68.949   1.918  0.00  0.00    -0.255 NA
ATOM     10  C13 CHE B   01     16.102  68.690   5.452  0.00  0.00    +0.072 A 
ATOM     11  C14 CHE B   01     16.705  68.637   2.325  0.00  0.00    +0.028 A 
ATOM     12  C15 CHE B   01     17.309  68.746   1.525  0.00  0.00    +0.002 A 
ATOM     13  C16 CHE B   01     14.803  68.525   8.161  0.00  0.00    +0.001 A 
ATOM     14  C17 CHE B   01     15.697  68.804   8.699  0.00  0.00    +0.010 A 
ATOM     15  C18 CHE B   01     16.103  68.850   7.779  0.00  0.00    +0.008 A 
ENDBRANCH   3   6
BRANCH   4  16
ATOM     16  C20 CHE B   01     20.557  68.558   5.441  0.00  0.00    +0.091 A 
ATOM     17  C21 CHE B   01     20.009  68.052   6.148  0.00  0.00    +0.030 A 
ATOM     18  C22 CHE B   01     19.679  67.862   5.909  0.00  0.00    +0.004 A 
ATOM     19  C23 CHE B   01     21.392  69.804   1.627  0.00  0.00    +0.020 A 
ATOM     20  C24 CHE B   01     18.234  66.266   9.281  0.00  0.00    +0.111 A 
ATOM     21  N3  CHE B   01     20.783  68.879   4.500  0.00  0.00    -0.253 NA
ENDBRANCH   4  16
BRANCH   1  22
ATOM     22  C1  CHE B   01     21.849  68.182   9.435  0.00  0.00    +0.178 C 
BRANCH  22  23
ATOM     23  C2  CHE B   01     26.368  67.569   7.099  0.00  0.00    -0.026 A 
ATOM     24  C3  CHE B   01     26.014  68.702   7.801  0.00  0.00    +0.005 A 
ATOM     25  C4  CHE B   01     22.486  71.139  10.562  0.00  0.00    +0.000 A 
ATOM     26  C5  CHE B   01     24.930  70.280   9.046  0.00  0.00    +0.000 A 
ATOM     27  C6  CHE B   01     24.476  69.445   8.851  0.00  0.00    +0.000 A 
ATOM     28  C7  CHE B   01     27.999  66.999   6.089  0.00  0.00    +0.005 A 
ENDBRANCH  22  23
ENDBRANCH   1  22
TORSDOF 4
ENDMDL
MODEL 6
REMARK VINA RESULT:      -9.2      3.674      9.178
REMARK  Name = dock_mp/CHEMBL1/CHEMBL126180.pdb
REMARK  4 active torsions:
REMARK  status: ('A' for Active; 'I' for Inactive)
REMARK    1  A    between atoms: C1_1  and  C2_2
REMARK    2  A    between atoms: C1_1  and  N1_8
REMARK    3  A    between atoms: C9_10  and  C10_11
REMARK    4  A    between atoms: C19_21  and  C20_22
REMARK                            x       y       z     vdW  Elec       q    Type
REMARK                         _______ _______ _______ _____ _____    ______ ____
ROOT
ATOM      1  N1  CHE B   01     16.210  66.686  10.935  0.00  0.00    -0.266 N 
ATOM      2  C8  CHE B   01     18.232  67.528  10.400  0.00  0.00    +0.118 A 
ATOM      3  C9  CHE B   01     22.824  69.729   7.113  0.00  0.00    +0.030 A 
ATOM      4  C19 CHE B   01     17.749  67.224  11.271  0.00  0.00    +0.119 A 
ATOM      5  N4  CHE B   01     20.360  68.788   7.141  0.00  0.00    -0.169 NA
ENDROOT
BRANCH   3   6
ATOM      6  C10 CHE B   01     23.645  69.911   8.051  0.00  0.00    -0.004 A 
ATOM      7  C11 CHE B   01     25.293  62.088   8.400  0.00  0.00    +0.029 A 
ATOM      8  C12 CHE B   01     24.746  69.133   9.119  0.00  0.00    +0.112 A 
ATOM      9  N2  CHE B   01     25.606  68.300   9.912  0.00  0.00    -0.255 NA
ATOM     10  C13 CHE B   01     26.268  64.352   9.899  0.00  0.00    +0.072 A 
ATOM     11  C14 CHE B   01     26.395  67.452  10.622  0.00  0.00    +0.028 A 
ATOM     12  C15 CHE B   01     26.121  68.415  10.500  0.00  0.00    +0.002 A 
ATOM     13  C16 CHE B   01     26.687  61.374   9.803  0.00  0.00    +0.001 A 
ATOM     14  C17 CHE B   01     25.984  61.218   8.998  0.00  0.00    +0.010 A 
ATOM     15  C18 CHE B   01     25.866  62.216   9.055  0.00  0.00    +0.008 A 
ENDBRANCH   3   6
BRANCH   4  16
ATOM     16  C20 CHE B   01     20.064  68.329   9.650  0.00  0.00    +0.091 A 
ATOM     17  C21 CHE B   01     19.505  68.111  10.485  0.00  0.00    +0.030 A 
ATOM     18  C22 CHE B   01     19.748  68.283  10.822  0.00  0.00    +0.004 A 
ATOM     19  C23 CHE B   01     23.301  69.908   7.695  0.00  0.00    +0.020 A 
ATOM     20  C24 CHE B   01     16.960  67.022  13.398  0.00  0.00    +0.111 A 
ATOM     21  N3  CHE B   01     20.861  68.715   9.144  0.00  0.00    -0.253 NA
ENDBRANCH   4  16
BRANCH   1  22
ATOM     22  C1  CHE B   01     16.121  66.862   9.408  0.00  0.00    +0.178 C 
BRANCH  22  23
ATOM     23  C2  CHE B   01     14.290  64.713   5.133  0.00  0.00    -0.026 A 
ATOM     24  C3  CHE B   01     14.681  66.032   5.222  0.00  0.00    +0.005 A 
ATOM     25  C4  CHE B   01     16.558  69.788   8.115  0.00  0.00    +0.000 A 
ATOM     26  C5  CHE B   01     15.447  68.065   5.923  0.00  0.00    +0.000 A 
ATOM     27  C6  CHE B   01     15.426  67.330   6.556  0.00  0.00    +0.000 A 
ATOM     28  C7  CHE B   01     13.549  63.566   3.669  0.00  0.00    +0.005 A 
ENDBRANCH  22  23
ENDBRANCH   1  22
TORSDOF 4
ENDMDL
MODEL 7
REMARK VINA RESULT:      -9.1      2.983      8.541
REMARK  Name = dock_mp/CHEMBL1/CHEMBL126180.pdb
REMARK  4 active torsions:
REMARK  status: ('A' for Active; 'I' for Inactive)
REMARK    1  A    between atoms: C1_1  and  C2_2
REMARK    2  A    between atoms: C1_1  and  N1_8
REMARK    3  A    between atoms: C9_10  and  C10_11
REMARK    4  A    between atoms: C19_21  and  C20_22
REMARK                            x       y       z     vdW  Elec       q    Type
REMARK                         _______ _______ _______ _____ _____    ______ ____
ROOT
ATOM      1  N1  CHE B   01     16.504  67.655  10.850  0.00  0.00    -0.266 N 
ATOM      2  C8  CHE B   01     18.674  68.210  10.589  0.00  0.00    +0.118 A 
ATOM      3  C9  CHE B   01     24.107  69.000   8.020  0.00  0.00    +0.030 A 
ATOM      4  C19 CHE B   01     17.974  68.246  11.359  0.00  0.00    +0.119 A 
ATOM      5  N4  CHE B   01     21.614  68.181   7.744  0.00  0.00    -0.169 NA
ENDROOT
BRANCH   3   6
ATOM      6  C10 CHE B   01     24.706  69.487   9.016  0.00  0.00    -0.004 A 
ATOM      7  C11 CHE B   01     19.394  66.252  14.052  0.00  0.00    +0.029 A 
ATOM      8  C12 CHE B   01     24.696  69.615  10.731  0.00  0.00    +0.112 A 
ATOM      9  N2  CHE B   01     24.509  69.600  12.155  0.00  0.00    -0.255 NA
ATOM     10  C13 CHE B   01     21.735  67.886  14.475  0.00  0.00    +0.072 A 
ATOM     11  C14 CHE B   01     24.271  69.542  13.491  0.00  0.00    +0.028 A 
ATOM     12  C15 CHE B   01     24.885  69.906  12.779  0.00  0.00    +0.002 A 
ATOM     13  C16 CHE B   01     19.598  66.554  16.123  0.00  0.00    +0.001 A 
ATOM     14  C17 CHE B   01     19.085  66.136  15.270  0.00  0.00    +0.010 A 
ATOM     15  C18 CHE B   01     19.813  66.593  14.747  0.00  0.00    +0.008 A 
ENDBRANCH   3   6
BRANCH   4  16
ATOM     16  C20 CHE B   01     20.705  68.653  10.099  0.00  0.00    +0.091 A 
ATOM     17  C21 CHE B   01     19.985  68.659  10.833  0.00  0.00    +0.030 A 
ATOM     18  C22 CHE B   01     20.202  68.821  11.192  0.00  0.00    +0.004 A 
ATOM     19  C23 CHE B   01     24.480  69.294   8.639  0.00  0.00    +0.020 A 
ATOM     20  C24 CHE B   01     16.828  68.479  13.314  0.00  0.00    +0.111 A 
ATOM     21  N3  CHE B   01     21.638  68.805   9.716  0.00  0.00    -0.253 NA
ENDBRANCH   4  16
BRANCH   1  22
ATOM     22  C1  CHE B   01     16.785  67.278   9.385  0.00  0.00    +0.178 C 
BRANCH  22  23
ATOM     23  C2  CHE B   01     14.753  64.982   5.280  0.00  0.00    -0.026 A 
ATOM     24  C3  CHE B   01     15.504  66.137   5.220  0.00  0.00    +0.005 A 
ATOM     25  C4  CHE B   01     18.157  69.691   7.736  0.00  0.00    +0.000 A 
ATOM     26  C5  CHE B   01     16.770  67.974   5.702  0.00  0.00    +0.000 A 
ATOM     27  C6  CHE B   01     16.486  67.399   6.429  0.00  0.00    +0.000 A 
ATOM     28  C7  CHE B   01     13.829  63.839   3.921  0.00  0.00    +0.005 A 
ENDBRANCH  22  23
ENDBRANCH   1  22
TORSDOF 4
ENDMDL
MODEL 8
REMARK VINA RESULT:      -9.0      2.190      3.401
REMARK  Name = dock_mp/CHEMBL1/CHEMBL126180.pdb
REMARK  4 active torsions:
REMARK  status: ('A' for Active; 'I' for Inactive)
REMARK    1  A    between atoms: C1_1  and  C2_2
REMARK    2  A    between atoms: C1_1  and  N1_8
REMARK    3  A    between atoms: C9_10  and  C10_11
REMARK    4  A    between atoms: C19_21  and  C20_22
REMARK                            x       y       z     vdW  Elec       q    Type
REMARK                         _______ _______ _______ _____ _____    ______ ____
ROOT
ATOM      1  N1  CHE B   01     20.268  69.061   5.132  0.00  0.00    -0.266 N 
ATOM      2  C8  CHE B   01     20.898  68.935   7.292  0.00  0.00    +0.118 A 
ATOM      3  C9  CHE B   01     24.029  69.853  12.401  0.00  0.00    +0.030 A 
ATOM      4  C19 CHE B   01     20.139  68.533   6.705  0.00  0.00    +0.119 A 
ATOM      5  N4  CHE B   01     23.772  70.370   9.827  0.00  0.00    -0.169 NA
ENDROOT
BRANCH   3   6
ATOM      6  C10 CHE B   01     23.338  69.130  13.166  0.00  0.00    -0.004 A 
ATOM      7  C11 CHE B   01     17.040  69.596   8.252  0.00  0.00    +0.029 A 
ATOM      8  C12 CHE B   01     21.796  68.399  13.388  0.00  0.00    +0.112 A 
ATOM      9  N2  CHE B   01     20.458  67.880  13.385  0.00  0.00    -0.255 NA
ATOM     10  C13 CHE B   01     17.446  68.257  10.775  0.00  0.00    +0.072 A 
ATOM     11  C14 CHE B   01     19.179  67.425  13.314  0.00  0.00    +0.028 A 
ATOM     12  C15 CHE B   01     20.024  67.427  13.865  0.00  0.00    +0.002 A 
ATOM     13  C16 CHE B   01     15.251  68.607   8.747  0.00  0.00    +0.001 A 
ATOM     14  C17 CHE B   01     15.844  69.227   8.090  0.00  0.00    +0.010 A 
ATOM     15  C18 CHE B   01     16.557  69.091   8.787  0.00  0.00    +0.008 A 
ENDBRANCH   3   6
BRANCH   4  16
ATOM     16  C20 CHE B   01     21.688  68.975   9.277  0.00  0.00    +0.091 A 
ATOM     17  C21 CHE B   01     20.955  68.602   8.659  0.00  0.00    +0.030 A 
ATOM     18  C22 CHE B   01     20.709  68.343   8.932  0.00  0.00    +0.004 A 
ATOM     19  C23 CHE B   01     23.601  69.405  12.875  0.00  0.00    +0.020 A 
ATOM     20  C24 CHE B   01     18.339  67.437   5.839  0.00  0.00    +0.111 A 
ATOM     21  N3  CHE B   01     22.178  69.095  10.163  0.00  0.00    -0.253 NA
ENDBRANCH   4  16
BRANCH   1  22
ATOM     22  C1  CHE B   01     21.510  69.968   5.185  0.00  0.00    +0.178 C 
BRANCH  22  23
ATOM     23  C2  CHE B   01     26.616  69.907   5.611  0.00  0.00    -0.026 A 
ATOM     24  C3  CHE B   01     25.944  69.798   4.411  0.00  0.00    +0.005 A 
ATOM     25  C4  CHE B   01     21.468  69.641   1.973  0.00  0.00    +0.000 A 
ATOM     26  C5  CHE B   01     24.362  69.663   2.771  0.00  0.00    +0.000 A 
ATOM     27  C6  CHE B   01     24.073  69.763   3.692  0.00  0.00    +0.000 A 
ATOM     28  C7  CHE B   01     28.546  69.921   6.140  0.00  0.00    +0.005 A 
ENDBRANCH  22  23
ENDBRANCH   1  22
TORSDOF 4
ENDMDL
MODEL 9
REMARK VINA RESULT:      -8.9      2.475      6.396
REMARK  Name = dock_mp/CHEMBL1/CHEMBL126180.pdb
REMARK  4 active torsions:
REMARK  status: ('A' for Active; 'I' for Inactive)
REMARK    1  A    between atoms: C1_1  and  C2_2
REMARK    2  A    between atoms: C1_1  and  N1_8
REMARK    3  A    between atoms: C9_10  and  C10_11
REMARK    4  A    between atoms: C19_21  and  C20_22
REMARK                            x       y       z     vdW  Elec       q    Type
REMARK                         _______ _______ _______ _____ _____    ______ ____
ROOT
ATOM      1  N1  CHE B   01     24.583  68.543  10.593  0.00  0.00    -0.266 N 
ATOM      2  C8  CHE B   01     22.882  68.469   9.115  0.00  0.00    +0.118 A 
ATOM      3  C9  CHE B   01     19.537  69.583   4.184  0.00  0.00    +0.030 A 
ATOM      4  C19 CHE B   01     23.103  68.028  10.032  0.00  0.00    +0.119 A 
ATOM      5  N4  CHE B   01     21.766  70.057   5.513  0.00  0.00    -0.169 NA
ENDROOT
BRANCH   3   6
ATOM      6  C10 CHE B   01     18.558  68.839   4.461  0.00  0.00    -0.004 A 
ATOM      7  C11 CHE B   01     20.368  69.018  12.254  0.00  0.00    +0.029 A 
ATOM      8  C12 CHE B   01     17.716  68.051   5.737  0.00  0.00    +0.112 A 
ATOM      9  N2  CHE B   01     17.161  67.480   6.932  0.00  0.00    -0.255 NA
ATOM     10  C13 CHE B   01     18.260  67.717  10.774  0.00  0.00    +0.072 A 
ATOM     11  C14 CHE B   01     16.692  66.975   8.103  0.00  0.00    +0.028 A 
ATOM     12  C15 CHE B   01     16.547  67.014   7.106  0.00  0.00    +0.002 A 
ATOM     13  C16 CHE B   01     19.176  67.964  13.629  0.00  0.00    +0.001 A 
ATOM     14  C17 CHE B   01     20.015  68.601  13.392  0.00  0.00    +0.010 A 
ATOM     15  C18 CHE B   01     19.684  68.499  12.447  0.00  0.00    +0.008 A 
ENDBRANCH   3   6
BRANCH   4  16
ATOM     16  C20 CHE B   01     21.407  68.567   7.573  0.00  0.00    +0.091 A 
ATOM     17  C21 CHE B   01     21.674  68.145   8.472  0.00  0.00    +0.030 A 
ATOM     18  C22 CHE B   01     21.332  67.867   8.563  0.00  0.00    +0.004 A 
ATOM     19  C23 CHE B   01     18.936  69.115   4.351  0.00  0.00    +0.020 A 
ATOM     20  C24 CHE B   01     23.172  66.807  11.953  0.00  0.00    +0.111 A 
ATOM     21  N3  CHE B   01     20.807  68.718   6.763  0.00  0.00    -0.253 NA
ENDBRANCH   4  16
BRANCH   1  22
ATOM     22  C1  CHE B   01     25.046  69.503   9.483  0.00  0.00    +0.178 C 
BRANCH  22  23
ATOM     23  C2  CHE B   01     28.125  73.486   8.527  0.00  0.00    -0.026 A 
ATOM     24  C3  CHE B   01     28.119  72.324   7.784  0.00  0.00    +0.005 A 
ATOM     25  C4  CHE B   01     26.142  67.681   7.053  0.00  0.00    +0.000 A 
ATOM     26  C5  CHE B   01     27.692  70.248   6.935  0.00  0.00    +0.000 A 
ATOM     27  C6  CHE B   01     27.188  70.551   7.707  0.00  0.00    +0.000 A 
ATOM     28  C7  CHE B   01     29.160  75.197   8.446  0.00  0.00    +0.005 A 
ENDBRANCH  22  23
ENDBRANCH   1  22
TORSDOF 4
ENDMDL
MODEL 10
REMARK VINA RESULT:      -8.9      4.162      8.377
REMARK  Name = dock_mp/CHEMBL1/CHEMBL126180.pdb
REMARK  4 active torsions:
REMARK  status: ('A' for Active; 'I' for Inactive)
REMARK    1  A    between atoms: C1_1  and  C2_2
REMARK    2  A    between atoms: C1_1  and  N1_8
REMARK    3  A    between atoms: C9_10  and  C10_11
REMARK    4  A    between atoms: C19_21  and  C20_22
REMARK                            x       y       z     vdW  Elec       q    Type
REMARK                         _______ _______ _______ _____ _____    ______ ____
ROOT
ATOM      1  N1  CHE B   01     16.599  68.553   4.203  0.00  0.00    -0.266 N 
ATOM      2  C8  CHE B   01     18.506  68.530   5.406  0.00  0.00    +0.118 A 
ATOM      3  C9  CHE B   01     22.321  67.848  10.066  0.00  0.00    +0.030 A 
ATOM      4  C19 CHE B   01     18.235  68.761   4.427  0.00  0.00    +0.119 A 
ATOM      5  N4  CHE B   01     19.841  67.688   9.180  0.00  0.00    -0.169 NA
ENDROOT
BRANCH   3   6
ATOM      6  C10 CHE B   01     23.382  68.189   9.479  0.00  0.00    -0.004 A 
ATOM      7  C11 CHE B   01     25.870  60.591   9.139  0.00  0.00    +0.029 A 
ATOM      8  C12 CHE B   01     24.852  67.611   8.796  0.00  0.00    +0.112 A 
ATOM      9  N2  CHE B   01     26.010  66.933   8.286  0.00  0.00    -0.255 NA
ATOM     10  C13 CHE B   01     27.043  63.066   8.232  0.00  0.00    +0.072 A 
ATOM     11  C14 CHE B   01     27.075  66.225   7.827  0.00  0.00    +0.028 A 
ATOM     12  C15 CHE B   01     26.676  67.147   7.918  0.00  0.00    +0.002 A 
ATOM     13  C16 CHE B   01     27.719  60.134   8.247  0.00  0.00    +0.001 A 
ATOM     14  C17 CHE B   01     26.809  59.842   8.750  0.00  0.00    +0.010 A 
ATOM     15  C18 CHE B   01     26.612  60.829   8.729  0.00  0.00    +0.008 A 
ENDBRANCH   3   6
BRANCH   4  16
ATOM     16  C20 CHE B   01     20.168  68.428   6.743  0.00  0.00    +0.091 A 
ATOM     17  C21 CHE B   01     19.861  68.562   5.771  0.00  0.00    +0.030 A 
ATOM     18  C22 CHE B   01     20.248  68.589   5.542  0.00  0.00    +0.004 A 
ATOM     19  C23 CHE B   01     22.982  68.001   9.691  0.00  0.00    +0.020 A 
ATOM     20  C24 CHE B   01     18.145  69.065   2.172  0.00  0.00    +0.111 A 
ATOM     21  N3  CHE B   01     20.852  68.320   7.492  0.00  0.00    -0.253 NA
ENDBRANCH   4  16
BRANCH   1  22
ATOM     22  C1  CHE B   01     16.128  68.085   5.591  0.00  0.00    +0.178 C 
BRANCH  22  23
ATOM     23  C2  CHE B   01     17.114  68.480  10.604  0.00  0.00    -0.026 A 
ATOM     24  C3  CHE B   01     16.581  67.353  10.012  0.00  0.00    +0.005 A 
ATOM     25  C4  CHE B   01     14.990  65.067   5.741  0.00  0.00    +0.000 A 
ATOM     26  C5  CHE B   01     15.744  65.814   8.549  0.00  0.00    +0.000 A 
ATOM     27  C6  CHE B   01     16.022  66.680   8.209  0.00  0.00    +0.000 A 
ATOM     28  C7  CHE B   01     17.616  68.975  12.477  0.00  0.00    +0.005 A 
ENDBRANCH  22  23
ENDBRANCH   1  22
TORSDOF 4
ENDMDL
