MODEL 1
REMARK VINA RESULT:      -7.2      0.000      0.000
REMARK  Name = dock_mp/CHEMBL1/CHEMBL129760.pdb
REMARK  6 active torsions:
REMARK  status: ('A' for Active; 'I' for Inactive)
REMARK    1  A    between atoms: C1_1  and  O1_2
REMARK    2  A    between atoms: O1_2  and  C2_3
REMARK    3  A    between atoms: C5_6  and  C6_7
REMARK    4  A    between atoms: N1_9  and  C8_10
REMARK    5  A    between atoms: C9_12  and  C10_13
REMARK    6  A    between atoms: C14_17  and  C15_18
REMARK                            x       y       z     vdW  Elec       q    Type
REMARK                         _______ _______ _______ _____ _____    ______ ____
ROOT
ATOM      1  C6  CHE B   07     25.226  73.481   2.720  0.00  0.00    +0.029 A 
ATOM      2  C7  CHE B   07     26.760  67.720   3.425  0.00  0.00    +0.117 A 
ATOM      3  N1  CHE B   07     26.819  70.934   3.708  0.00  0.00    -0.273 N 
ATOM      4  C8  CHE B   07     25.633  75.772   3.192  0.00  0.00    +0.172 C 
ATOM      5  N2  CHE B   07     28.073  69.314   4.515  0.00  0.00    -0.169 NA
ATOM      6  C9  CHE B   07     25.407  76.744   3.096  0.00  0.00    +0.119 A 
ENDROOT
BRANCH   6   7
ATOM      7  C10 CHE B   07     28.224  69.375   4.631  0.00  0.00    +0.092 A 
ATOM      8  C11 CHE B   07     27.239  75.358   4.352  0.00  0.00    +0.030 A 
ATOM      9  C12 CHE B   07     27.827  75.596   4.807  0.00  0.00    +0.004 A 
ATOM     10  C13 CHE B   07     27.963  74.588   4.832  0.00  0.00    +0.023 A 
ATOM     11  C14 CHE B   07     26.983  75.255   4.154  0.00  0.00    +0.039 A 
ATOM     12  C15 CHE B   07     26.605  76.166   3.943  0.00  0.00    +0.065 C 
ATOM     13  N3  CHE B   07     26.418  75.026   3.717  0.00  0.00    -0.250 NA
ENDBRANCH   6   7
BRANCH   1  17
ATOM     14  C2  CHE B   07     23.823  69.729   1.410  0.00  0.00    +0.120 A 
ATOM     15  C3  CHE B   07     26.510  73.443  -0.587  0.00  0.00    +0.046 A 
ATOM     16  C4  CHE B   07     23.213  69.518   2.684  0.00  0.00    +0.012 A 
ATOM     17  C5  CHE B   07     24.759  72.229   2.280  0.00  0.00    -0.014 A 
ATOM     18  C16 CHE B   07     23.147  69.994   3.469  0.00  0.00    +0.012 A 
ATOM     19  C17 CHE B   07     25.906  73.185   0.610  0.00  0.00    +0.046 A 
BRANCH  14  21
ATOM     20  C1  CHE B   07     26.466  71.678  -2.816  0.00  0.00    +0.277 C 
ATOM     21  O1  CHE B   07     24.968  70.701  -0.234  0.00  0.00    -0.495 OA
ENDBRANCH  14  21
ENDBRANCH   1  17
TORSDOF 3
ENDMDL
MODEL 2
REMARK VINA RESULT:      -7.1      9.523     12.147
REMARK  Name = dock_mp/CHEMBL1/CHEMBL129760.pdb
REMARK  6 active torsions:
REMARK  status: ('A' for Active; 'I' for Inactive)
REMARK    1  A    between atoms: C1_1  and  O1_2
REMARK    2  A    between atoms: O1_2  and  C2_3
REMARK    3  A    between atoms: C5_6  and  C6_7
REMARK    4  A    between atoms: N1_9  and  C8_10
REMARK    5  A    between atoms: C9_12  and  C10_13
REMARK    6  A    between atoms: C14_17  and  C15_18
REMARK                            x       y       z     vdW  Elec       q    Type
REMARK                         _______ _______ _______ _____ _____    ______ ____
ROOT
ATOM      1  C6  CHE B   07     19.977  68.854  11.681  0.00  0.00    +0.029 A 
ATOM      2  C7  CHE B   07     25.896  68.194  10.926  0.00  0.00    +0.117 A 
ATOM      3  N1  CHE B   07     22.924  67.795  12.120  0.00  0.00    -0.273 N 
ATOM      4  C8  CHE B   07     17.990  68.264  12.840  0.00  0.00    +0.172 C 
ATOM      5  N2  CHE B   07     24.886  66.920  12.602  0.00  0.00    -0.169 NA
ATOM      6  C9  CHE B   07     17.004  68.349  12.995  0.00  0.00    +0.119 A 
ENDROOT
BRANCH   6   7
ATOM      7  C10 CHE B   07     24.884  66.787  12.751  0.00  0.00    +0.092 A 
ATOM      8  C11 CHE B   07     18.960  66.977  14.065  0.00  0.00    +0.030 A 
ATOM      9  C12 CHE B   07     18.954  66.466  14.654  0.00  0.00    +0.004 A 
ATOM     10  C13 CHE B   07     19.941  66.459  14.408  0.00  0.00    +0.023 A 
ATOM     11  C14 CHE B   07     18.963  67.200  13.808  0.00  0.00    +0.039 A 
ATOM     12  C15 CHE B   07     17.979  67.417  13.813  0.00  0.00    +0.065 C 
ATOM     13  N3  CHE B   07     18.970  67.691  13.241  0.00  0.00    -0.250 NA
ENDBRANCH   6   7
BRANCH   1  17
ATOM     14  C2  CHE B   07     22.966  70.440   9.168  0.00  0.00    +0.120 A 
ATOM     15  C3  CHE B   07     19.077  67.350   8.597  0.00  0.00    +0.046 A 
ATOM     16  C4  CHE B   07     23.515  71.152  10.279  0.00  0.00    +0.012 A 
ATOM     17  C5  CHE B   07     20.974  69.383  10.840  0.00  0.00    -0.014 A 
ATOM     18  C16 CHE B   07     23.310  71.236  11.171  0.00  0.00    +0.012 A 
ATOM     19  C17 CHE B   07     19.646  68.053   9.620  0.00  0.00    +0.046 A 
BRANCH  14  21
ATOM     20  C1  CHE B   07     19.970  67.434   5.908  0.00  0.00    +0.277 C 
ATOM     21  O1  CHE B   07     21.632  69.113   7.977  0.00  0.00    -0.495 OA
ENDBRANCH  14  21
ENDBRANCH   1  17
TORSDOF 3
ENDMDL
MODEL 3
REMARK VINA RESULT:      -7.0      9.570     11.829
REMARK  Name = dock_mp/CHEMBL1/CHEMBL129760.pdb
REMARK  6 active torsions:
REMARK  status: ('A' for Active; 'I' for Inactive)
REMARK    1  A    between atoms: C1_1  and  O1_2
REMARK    2  A    between atoms: O1_2  and  C2_3
REMARK    3  A    between atoms: C5_6  and  C6_7
REMARK    4  A    between atoms: N1_9  and  C8_10
REMARK    5  A    between atoms: C9_12  and  C10_13
REMARK    6  A    between atoms: C14_17  and  C15_18
REMARK                            x       y       z     vdW  Elec       q    Type
REMARK                         _______ _______ _______ _____ _____    ______ ____
ROOT
ATOM      1  C6  CHE B   07     21.237  69.338  11.874  0.00  0.00    +0.029 A 
ATOM      2  C7  CHE B   07     16.386  66.330  10.014  0.00  0.00    +0.117 A 
ATOM      3  N1  CHE B   07     19.091  68.087   9.916  0.00  0.00    -0.273 N 
ATOM      4  C8  CHE B   07     23.165  70.621  11.351  0.00  0.00    +0.172 C 
ATOM      5  N2  CHE B   07     17.726  67.312   8.373  0.00  0.00    -0.169 NA
ATOM      6  C9  CHE B   07     23.984  71.131  11.625  0.00  0.00    +0.119 A 
ENDROOT
BRANCH   6   7
ATOM      7  C10 CHE B   07     17.777  67.358   8.185  0.00  0.00    +0.092 A 
ATOM      8  C11 CHE B   07     22.868  70.449   9.357  0.00  0.00    +0.030 A 
ATOM      9  C12 CHE B   07     23.095  70.585   8.623  0.00  0.00    +0.004 A 
ATOM     10  C13 CHE B   07     22.236  70.064   8.462  0.00  0.00    +0.023 A 
ATOM     11  C14 CHE B   07     22.769  70.390   9.676  0.00  0.00    +0.039 A 
ATOM     12  C15 CHE B   07     23.535  70.856  10.138  0.00  0.00    +0.065 C 
ATOM     13  N3  CHE B   07     22.551  70.259  10.382  0.00  0.00    -0.250 NA
ENDBRANCH   6   7
BRANCH   1  17
ATOM     14  C2  CHE B   07     18.077  67.178  13.637  0.00  0.00    +0.120 A 
ATOM     15  C3  CHE B   07     23.044  66.672  13.361  0.00  0.00    +0.046 A 
ATOM     16  C4  CHE B   07     17.146  68.139  13.135  0.00  0.00    +0.012 A 
ATOM     17  C5  CHE B   07     20.184  68.615  12.463  0.00  0.00    -0.014 A 
ATOM     18  C16 CHE B   07     17.203  68.909  12.636  0.00  0.00    +0.012 A 
ATOM     19  C17 CHE B   07     22.108  67.557  12.908  0.00  0.00    +0.046 A 
BRANCH  14  21
ATOM     20  C1  CHE B   07     22.446  64.354  14.895  0.00  0.00    +0.277 C 
ATOM     21  O1  CHE B   07     20.003  66.145  14.066  0.00  0.00    -0.495 OA
ENDBRANCH  14  21
ENDBRANCH   1  17
TORSDOF 3
ENDMDL
MODEL 4
REMARK VINA RESULT:      -6.7      9.934     12.903
REMARK  Name = dock_mp/CHEMBL1/CHEMBL129760.pdb
REMARK  6 active torsions:
REMARK  status: ('A' for Active; 'I' for Inactive)
REMARK    1  A    between atoms: C1_1  and  O1_2
REMARK    2  A    between atoms: O1_2  and  C2_3
REMARK    3  A    between atoms: C5_6  and  C6_7
REMARK    4  A    between atoms: N1_9  and  C8_10
REMARK    5  A    between atoms: C9_12  and  C10_13
REMARK    6  A    between atoms: C14_17  and  C15_18
REMARK                            x       y       z     vdW  Elec       q    Type
REMARK                         _______ _______ _______ _____ _____    ______ ____
ROOT
ATOM      1  C6  CHE B   07     21.212  68.306  12.929  0.00  0.00    +0.029 A 
ATOM      2  C7  CHE B   07     21.793  70.323   7.305  0.00  0.00    +0.117 A 
ATOM      3  N1  CHE B   07     20.470  68.999   9.934  0.00  0.00    -0.273 N 
ATOM      4  C8  CHE B   07     19.871  67.283  14.601  0.00  0.00    +0.172 C 
ATOM      5  N2  CHE B   07     19.736  69.388   7.895  0.00  0.00    -0.169 NA
ATOM      6  C9  CHE B   07     19.738  66.936  15.532  0.00  0.00    +0.119 A 
ENDROOT
BRANCH   6   7
ATOM      7  C10 CHE B   07     19.547  69.331   7.862  0.00  0.00    +0.092 A 
ATOM      8  C11 CHE B   07     18.251  67.189  13.392  0.00  0.00    +0.030 A 
ATOM      9  C12 CHE B   07     17.501  67.009  13.276  0.00  0.00    +0.004 A 
ATOM     10  C13 CHE B   07     17.752  67.374  12.360  0.00  0.00    +0.023 A 
ATOM     11  C14 CHE B   07     18.578  67.268  13.442  0.00  0.00    +0.039 A 
ATOM     12  C15 CHE B   07     18.634  66.976  14.406  0.00  0.00    +0.065 C 
ATOM     13  N3  CHE B   07     19.299  67.441  13.554  0.00  0.00    -0.250 NA
ENDBRANCH   6   7
BRANCH   1  17
ATOM     14  C2  CHE B   07     24.204  70.145  10.600  0.00  0.00    +0.120 A 
ATOM     15  C3  CHE B   07     23.659  65.737  12.896  0.00  0.00    +0.046 A 
ATOM     16  C4  CHE B   07     23.384  71.308  10.472  0.00  0.00    +0.012 A 
ATOM     17  C5  CHE B   07     22.213  68.918  12.151  0.00  0.00    -0.014 A 
ATOM     18  C16 CHE B   07     22.551  71.559  10.769  0.00  0.00    +0.012 A 
ATOM     19  C17 CHE B   07     22.920  66.875  12.740  0.00  0.00    +0.046 A 
BRANCH  14  21
ATOM     20  C1  CHE B   07     26.275  65.373  11.859  0.00  0.00    +0.277 C 
ATOM     21  O1  CHE B   07     24.885  68.110  11.197  0.00  0.00    -0.495 OA
ENDBRANCH  14  21
ENDBRANCH   1  17
TORSDOF 3
ENDMDL
MODEL 5
REMARK VINA RESULT:      -6.6      1.774      3.525
REMARK  Name = dock_mp/CHEMBL1/CHEMBL129760.pdb
REMARK  6 active torsions:
REMARK  status: ('A' for Active; 'I' for Inactive)
REMARK    1  A    between atoms: C1_1  and  O1_2
REMARK    2  A    between atoms: O1_2  and  C2_3
REMARK    3  A    between atoms: C5_6  and  C6_7
REMARK    4  A    between atoms: N1_9  and  C8_10
REMARK    5  A    between atoms: C9_12  and  C10_13
REMARK    6  A    between atoms: C14_17  and  C15_18
REMARK                            x       y       z     vdW  Elec       q    Type
REMARK                         _______ _______ _______ _____ _____    ______ ____
ROOT
ATOM      1  C6  CHE B   07     25.989  74.296   1.340  0.00  0.00    +0.029 A 
ATOM      2  C7  CHE B   07     29.279  69.508  -0.172  0.00  0.00    +0.117 A 
ATOM      3  N1  CHE B   07     28.300  72.139   1.420  0.00  0.00    -0.273 N 
ATOM      4  C8  CHE B   07     25.632  76.155   2.773  0.00  0.00    +0.172 C 
ATOM      5  N2  CHE B   07     29.995  70.755   1.667  0.00  0.00    -0.169 NA
ATOM      6  C9  CHE B   07     25.107  76.961   3.054  0.00  0.00    +0.119 A 
ENDROOT
BRANCH   6   7
ATOM      7  C10 CHE B   07     30.116  70.799   1.820  0.00  0.00    +0.092 A 
ATOM      8  C11 CHE B   07     27.116  75.591   4.027  0.00  0.00    +0.030 A 
ATOM      9  C12 CHE B   07     27.510  75.681   4.694  0.00  0.00    +0.004 A 
ATOM     10  C13 CHE B   07     27.991  74.878   4.295  0.00  0.00    +0.023 A 
ATOM     11  C14 CHE B   07     26.944  75.553   3.736  0.00  0.00    +0.039 A 
ATOM     12  C15 CHE B   07     26.301  76.319   3.861  0.00  0.00    +0.065 C 
ATOM     13  N3  CHE B   07     26.565  75.467   3.094  0.00  0.00    -0.250 NA
ENDBRANCH   6   7
BRANCH   1  17
ATOM     14  C2  CHE B   07     25.890  71.288  -1.611  0.00  0.00    +0.120 A 
ATOM     15  C3  CHE B   07     24.029  71.846   2.996  0.00  0.00    +0.046 A 
ATOM     16  C4  CHE B   07     26.686  72.109  -2.468  0.00  0.00    +0.012 A 
ATOM     17  C5  CHE B   07     25.954  73.290   0.356  0.00  0.00    -0.014 A 
ATOM     18  C16 CHE B   07     27.066  72.945  -2.409  0.00  0.00    +0.012 A 
ATOM     19  C17 CHE B   07     24.788  72.585   2.134  0.00  0.00    +0.046 A 
BRANCH  14  21
ATOM     20  C1  CHE B   07     22.823  69.423   2.359  0.00  0.00    +0.277 C 
ATOM     21  O1  CHE B   07     24.735  70.610   0.169  0.00  0.00    -0.495 OA
ENDBRANCH  14  21
ENDBRANCH   1  17
TORSDOF 3
ENDMDL
MODEL 6
REMARK VINA RESULT:      -6.6      8.551     11.499
REMARK  Name = dock_mp/CHEMBL1/CHEMBL129760.pdb
REMARK  6 active torsions:
REMARK  status: ('A' for Active; 'I' for Inactive)
REMARK    1  A    between atoms: C1_1  and  O1_2
REMARK    2  A    between atoms: O1_2  and  C2_3
REMARK    3  A    between atoms: C5_6  and  C6_7
REMARK    4  A    between atoms: N1_9  and  C8_10
REMARK    5  A    between atoms: C9_12  and  C10_13
REMARK    6  A    between atoms: C14_17  and  C15_18
REMARK                            x       y       z     vdW  Elec       q    Type
REMARK                         _______ _______ _______ _____ _____    ______ ____
ROOT
ATOM      1  C6  CHE B   07     20.854  68.845  10.759  0.00  0.00    +0.029 A 
ATOM      2  C7  CHE B   07     20.105  68.206   4.837  0.00  0.00    +0.117 A 
ATOM      3  N1  CHE B   07     19.447  68.220   7.997  0.00  0.00    -0.273 N 
ATOM      4  C8  CHE B   07     19.957  68.719  12.954  0.00  0.00    +0.172 C 
ATOM      5  N2  CHE B   07     18.271  67.732   6.202  0.00  0.00    -0.169 NA
ATOM      6  C9  CHE B   07     20.046  68.815  13.948  0.00  0.00    +0.119 A 
ENDROOT
BRANCH   6   7
ATOM      7  C10 CHE B   07     18.082  67.676   6.238  0.00  0.00    +0.092 A 
ATOM      8  C11 CHE B   07     18.079  68.445  12.259  0.00  0.00    +0.030 A 
ATOM      9  C12 CHE B   07     17.310  68.400  12.384  0.00  0.00    +0.004 A 
ATOM     10  C13 CHE B   07     17.347  68.274  11.374  0.00  0.00    +0.023 A 
ATOM     11  C14 CHE B   07     18.414  68.464  12.205  0.00  0.00    +0.039 A 
ATOM     12  C15 CHE B   07     18.693  68.608  13.163  0.00  0.00    +0.065 C 
ATOM     13  N3  CHE B   07     19.153  68.507  12.085  0.00  0.00    -0.250 NA
ENDBRANCH   6   7
BRANCH   1  17
ATOM     14  C2  CHE B   07     23.182  69.332   7.279  0.00  0.00    +0.120 A 
ATOM     15  C3  CHE B   07     23.541  66.644  11.480  0.00  0.00    +0.046 A 
ATOM     16  C4  CHE B   07     22.223  70.263   6.774  0.00  0.00    +0.012 A 
ATOM     17  C5  CHE B   07     21.633  69.006   9.598  0.00  0.00    -0.014 A 
ATOM     18  C16 CHE B   07     21.428  70.615   7.074  0.00  0.00    +0.012 A 
ATOM     19  C17 CHE B   07     22.660  67.540  10.945  0.00  0.00    +0.046 A 
BRANCH  14  21
ATOM     20  C1  CHE B   07     25.882  65.726  10.170  0.00  0.00    +0.277 C 
ATOM     21  O1  CHE B   07     24.183  67.877   8.636  0.00  0.00    -0.495 OA
ENDBRANCH  14  21
ENDBRANCH   1  17
TORSDOF 3
ENDMDL
MODEL 7
REMARK VINA RESULT:      -6.5      2.666      4.780
REMARK  Name = dock_mp/CHEMBL1/CHEMBL129760.pdb
REMARK  6 active torsions:
REMARK  status: ('A' for Active; 'I' for Inactive)
REMARK    1  A    between atoms: C1_1  and  O1_2
REMARK    2  A    between atoms: O1_2  and  C2_3
REMARK    3  A    between atoms: C5_6  and  C6_7
REMARK    4  A    between atoms: N1_9  and  C8_10
REMARK    5  A    between atoms: C9_12  and  C10_13
REMARK    6  A    between atoms: C14_17  and  C15_18
REMARK                            x       y       z     vdW  Elec       q    Type
REMARK                         _______ _______ _______ _____ _____    ______ ____
ROOT
ATOM      1  C6  CHE B   07     26.622  74.174   1.813  0.00  0.00    +0.029 A 
ATOM      2  C7  CHE B   07     29.275  72.979   7.064  0.00  0.00    +0.117 A 
ATOM      3  N1  CHE B   07     27.605  74.553   4.795  0.00  0.00    -0.273 N 
ATOM      4  C8  CHE B   07     25.356  75.657   0.459  0.00  0.00    +0.172 C 
ATOM      5  N2  CHE B   07     28.180  75.032   6.865  0.00  0.00    -0.169 NA
ATOM      6  C9  CHE B   07     24.902  75.891  -0.404  0.00  0.00    +0.119 A 
ENDROOT
BRANCH   6   7
ATOM      7  C10 CHE B   07     28.117  75.210   6.930  0.00  0.00    +0.092 A 
ATOM      8  C11 CHE B   07     24.958  76.875   2.022  0.00  0.00    +0.030 A 
ATOM      9  C12 CHE B   07     24.569  77.477   2.330  0.00  0.00    +0.004 A 
ATOM     10  C13 CHE B   07     25.114  77.171   3.134  0.00  0.00    +0.023 A 
ATOM     11  C14 CHE B   07     25.128  76.613   1.887  0.00  0.00    +0.039 A 
ATOM     12  C15 CHE B   07     24.743  76.672   0.957  0.00  0.00    +0.065 C 
ATOM     13  N3  CHE B   07     25.502  76.035   1.591  0.00  0.00    -0.250 NA
ENDBRANCH   6   7
BRANCH   1  17
ATOM     14  C2  CHE B   07     28.854  71.021   3.499  0.00  0.00    +0.120 A 
ATOM     15  C3  CHE B   07     24.031  71.840   2.463  0.00  0.00    +0.046 A 
ATOM     16  C4  CHE B   07     30.049  71.786   3.335  0.00  0.00    +0.012 A 
ATOM     17  C5  CHE B   07     27.366  73.120   2.376  0.00  0.00    -0.014 A 
ATOM     18  C16 CHE B   07     30.256  72.618   3.002  0.00  0.00    +0.012 A 
ATOM     19  C17 CHE B   07     25.206  72.523   2.332  0.00  0.00    +0.046 A 
BRANCH  14  21
ATOM     20  C1  CHE B   07     23.818  69.244   3.141  0.00  0.00    +0.277 C 
ATOM     21  O1  CHE B   07     26.702  70.451   3.444  0.00  0.00    -0.495 OA
ENDBRANCH  14  21
ENDBRANCH   1  17
TORSDOF 3
ENDMDL
MODEL 8
REMARK VINA RESULT:      -6.4      3.474      6.714
REMARK  Name = dock_mp/CHEMBL1/CHEMBL129760.pdb
REMARK  6 active torsions:
REMARK  status: ('A' for Active; 'I' for Inactive)
REMARK    1  A    between atoms: C1_1  and  O1_2
REMARK    2  A    between atoms: O1_2  and  C2_3
REMARK    3  A    between atoms: C5_6  and  C6_7
REMARK    4  A    between atoms: N1_9  and  C8_10
REMARK    5  A    between atoms: C9_12  and  C10_13
REMARK    6  A    between atoms: C14_17  and  C15_18
REMARK                            x       y       z     vdW  Elec       q    Type
REMARK                         _______ _______ _______ _____ _____    ______ ____
ROOT
ATOM      1  C6  CHE B   07     25.299  69.443   3.601  0.00  0.00    +0.029 A 
ATOM      2  C7  CHE B   07     23.531  70.329   9.269  0.00  0.00    +0.117 A 
ATOM      3  N1  CHE B   07     23.391  69.990   6.063  0.00  0.00    -0.273 N 
ATOM      4  C8  CHE B   07     24.749  69.263   1.298  0.00  0.00    +0.172 C 
ATOM      5  N2  CHE B   07     21.881  70.378   7.618  0.00  0.00    -0.169 NA
ATOM      6  C9  CHE B   07     25.008  69.119   0.340  0.00  0.00    +0.119 A 
ENDROOT
BRANCH   6   7
ATOM      7  C10 CHE B   07     21.694  70.397   7.550  0.00  0.00    +0.092 A 
ATOM      8  C11 CHE B   07     22.778  69.576   1.634  0.00  0.00    +0.030 A 
ATOM      9  C12 CHE B   07     22.048  69.648   1.369  0.00  0.00    +0.004 A 
ATOM     10  C13 CHE B   07     21.901  69.781   2.367  0.00  0.00    +0.023 A 
ATOM     11  C14 CHE B   07     23.096  69.545   1.749  0.00  0.00    +0.039 A 
ATOM     12  C15 CHE B   07     23.542  69.382   0.860  0.00  0.00    +0.065 C 
ATOM     13  N3  CHE B   07     23.798  69.476   2.004  0.00  0.00    -0.250 NA
ENDBRANCH   6   7
BRANCH   1  17
ATOM     14  C2  CHE B   07     27.099  69.608   7.408  0.00  0.00    +0.120 A 
ATOM     15  C3  CHE B   07     27.030  72.529   3.351  0.00  0.00    +0.046 A 
ATOM     16  C4  CHE B   07     26.499  68.355   7.741  0.00  0.00    +0.012 A 
ATOM     17  C5  CHE B   07     25.901  69.500   4.872  0.00  0.00    -0.014 A 
ATOM     18  C16 CHE B   07     25.949  67.755   7.312  0.00  0.00    +0.012 A 
ATOM     19  C17 CHE B   07     26.484  71.335   3.725  0.00  0.00    +0.046 A 
BRANCH  14  21
ATOM     20  C1  CHE B   07     28.678  74.131   5.022  0.00  0.00    +0.277 C 
ATOM     21  O1  CHE B   07     27.665  71.423   6.248  0.00  0.00    -0.495 OA
ENDBRANCH  14  21
ENDBRANCH   1  17
TORSDOF 3
ENDMDL
MODEL 9
REMARK VINA RESULT:      -6.3     10.929     12.918
REMARK  Name = dock_mp/CHEMBL1/CHEMBL129760.pdb
REMARK  6 active torsions:
REMARK  status: ('A' for Active; 'I' for Inactive)
REMARK    1  A    between atoms: C1_1  and  O1_2
REMARK    2  A    between atoms: O1_2  and  C2_3
REMARK    3  A    between atoms: C5_6  and  C6_7
REMARK    4  A    between atoms: N1_9  and  C8_10
REMARK    5  A    between atoms: C9_12  and  C10_13
REMARK    6  A    between atoms: C14_17  and  C15_18
REMARK                            x       y       z     vdW  Elec       q    Type
REMARK                         _______ _______ _______ _____ _____    ______ ____
ROOT
ATOM      1  C6  CHE B   07     23.040  69.221  13.393  0.00  0.00    +0.029 A 
ATOM      2  C7  CHE B   07     18.429  66.227  15.805  0.00  0.00    +0.117 A 
ATOM      3  N1  CHE B   07     20.129  68.034  13.741  0.00  0.00    -0.273 N 
ATOM      4  C8  CHE B   07     23.904  70.564  11.636  0.00  0.00    +0.172 C 
ATOM      5  N2  CHE B   07     18.049  67.315  13.774  0.00  0.00    -0.169 NA
ATOM      6  C9  CHE B   07     24.651  71.074  11.204  0.00  0.00    +0.119 A 
ENDROOT
BRANCH   6   7
ATOM      7  C10 CHE B   07     17.938  67.372  13.617  0.00  0.00    +0.092 A 
ATOM      8  C11 CHE B   07     22.165  70.516  10.601  0.00  0.00    +0.030 A 
ATOM      9  C12 CHE B   07     21.744  70.707   9.973  0.00  0.00    +0.004 A 
ATOM     10  C13 CHE B   07     21.059  70.174  10.505  0.00  0.00    +0.023 A 
ATOM     11  C14 CHE B   07     22.348  70.432  10.875  0.00  0.00    +0.039 A 
ATOM     12  C15 CHE B   07     23.205  70.887  10.600  0.00  0.00    +0.065 C 
ATOM     13  N3  CHE B   07     22.753  70.248  11.479  0.00  0.00    -0.250 NA
ENDBRANCH   6   7
BRANCH   1  17
ATOM     14  C2  CHE B   07     22.321  66.919  16.849  0.00  0.00    +0.120 A 
ATOM     15  C3  CHE B   07     24.671  66.202  12.494  0.00  0.00    +0.046 A 
ATOM     16  C4  CHE B   07     21.610  68.015  17.426  0.00  0.00    +0.012 A 
ATOM     17  C5  CHE B   07     22.801  68.451  14.546  0.00  0.00    -0.014 A 
ATOM     18  C16 CHE B   07     21.394  68.869  17.163  0.00  0.00    +0.012 A 
ATOM     19  C17 CHE B   07     23.981  67.215  13.097  0.00  0.00    +0.046 A 
BRANCH  14  21
ATOM     20  C1  CHE B   07     25.148  63.663  13.679  0.00  0.00    +0.277 C 
ATOM     21  O1  CHE B   07     23.494  65.711  15.391  0.00  0.00    -0.495 OA
ENDBRANCH  14  21
ENDBRANCH   1  17
TORSDOF 3
ENDMDL
MODEL 10
REMARK VINA RESULT:      -6.1      9.533     12.582
REMARK  Name = dock_mp/CHEMBL1/CHEMBL129760.pdb
REMARK  6 active torsions:
REMARK  status: ('A' for Active; 'I' for Inactive)
REMARK    1  A    between atoms: C1_1  and  O1_2
REMARK    2  A    between atoms: O1_2  and  C2_3
REMARK    3  A    between atoms: C5_6  and  C6_7
REMARK    4  A    between atoms: N1_9  and  C8_10
REMARK    5  A    between atoms: C9_12  and  C10_13
REMARK    6  A    between atoms: C14_17  and  C15_18
REMARK                            x       y       z     vdW  Elec       q    Type
REMARK                         _______ _______ _______ _____ _____    ______ ____
ROOT
ATOM      1  C6  CHE B   07     20.537  68.862  12.332  0.00  0.00    +0.029 A 
ATOM      2  C7  CHE B   07     25.112  69.860   8.574  0.00  0.00    +0.117 A 
ATOM      3  N1  CHE B   07     22.147  69.134   9.623  0.00  0.00    -0.273 N 
ATOM      4  C8  CHE B   07     18.260  68.277  12.662  0.00  0.00    +0.172 C 
ATOM      5  N2  CHE B   07     23.063  69.262   7.626  0.00  0.00    -0.169 NA
ATOM      6  C9  CHE B   07     17.474  68.103  13.260  0.00  0.00    +0.119 A 
ENDROOT
BRANCH   6   7
ATOM      7  C10 CHE B   07     22.939  69.221   7.474  0.00  0.00    +0.092 A 
ATOM      8  C11 CHE B   07     17.918  68.056  10.680  0.00  0.00    +0.030 A 
ATOM      9  C12 CHE B   07     17.437  67.886  10.089  0.00  0.00    +0.004 A 
ATOM     10  C13 CHE B   07     18.297  68.088   9.583  0.00  0.00    +0.023 A 
ATOM     11  C14 CHE B   07     18.127  68.130  10.937  0.00  0.00    +0.039 A 
ATOM     12  C15 CHE B   07     17.465  67.998  11.686  0.00  0.00    +0.065 C 
ATOM     13  N3  CHE B   07     18.589  68.293  11.505  0.00  0.00    -0.250 NA
ENDBRANCH   6   7
BRANCH   1  17
ATOM     14  C2  CHE B   07     24.595  69.961  12.627  0.00  0.00    +0.120 A 
ATOM     15  C3  CHE B   07     21.758  66.237  14.383  0.00  0.00    +0.046 A 
ATOM     16  C4  CHE B   07     24.341  71.102  11.806  0.00  0.00    +0.012 A 
ATOM     17  C5  CHE B   07     21.893  69.227  12.432  0.00  0.00    -0.014 A 
ATOM     18  C16 CHE B   07     23.605  71.457  11.384  0.00  0.00    +0.012 A 
ATOM     19  C17 CHE B   07     21.576  67.343  13.602  0.00  0.00    +0.046 A 
BRANCH  14  21
ATOM     20  C1  CHE B   07     24.239  65.347  15.316  0.00  0.00    +0.277 C 
ATOM     21  O1  CHE B   07     24.255  68.089  13.784  0.00  0.00    -0.495 OA
ENDBRANCH  14  21
ENDBRANCH   1  17
TORSDOF 3
ENDMDL
