MODEL 1
REMARK VINA RESULT:     -10.8      0.000      0.000
REMARK  Name = dock_mp/CHEMBL1/CHEMBL120718.pdb
REMARK  3 active torsions:
REMARK  status: ('A' for Active; 'I' for Inactive)
REMARK    1  A    between atoms: C1_1  and  C2_2
REMARK    2  A    between atoms: C6_6  and  C7_7
REMARK    3  A    between atoms: C12_14  and  C13_15
REMARK                            x       y       z     vdW  Elec       q    Type
REMARK                         _______ _______ _______ _____ _____    ______ ____
ROOT
ATOM      1  C7  CHE B   07     16.815  68.597   2.454  0.00  0.00    +0.119 A 
ATOM      2  N1  CHE B   07     17.418  68.423   4.360  0.00  0.00    -0.169 NA
ATOM      3  N2  CHE B   07     19.122  68.795   7.117  0.00  0.00    -0.267 N 
ATOM      4  C8  CHE B   07     18.906  69.928   3.175  0.00  0.00    +0.144 C 
ATOM      5  C9  CHE B   07     20.963  69.929   7.870  0.00  0.00    +0.029 C 
ATOM      6  C10 CHE B   07     21.026  69.978   7.862  0.00  0.00    +0.057 C 
ATOM      7  C11 CHE B   07     19.425  69.361   6.085  0.00  0.00    +0.048 A 
ATOM      8  C12 CHE B   07     19.649  68.234  10.025  0.00  0.00    +0.032 A 
ENDROOT
BRANCH   8   9
ATOM      9  C13 CHE B   07     18.055  69.580   2.293  0.00  0.00    -0.011 A 
ATOM     10  C14 CHE B   07     19.136  68.113   6.968  0.00  0.00    +0.011 A 
ATOM     11  C15 CHE B   07     19.187  67.738   6.874  0.00  0.00    +0.042 A 
ATOM     12  C16 CHE B   07     18.569  68.395   4.013  0.00  0.00    +0.158 A 
ATOM     13  F1  CHE B   07     18.413  68.242   2.965  0.00  0.00    -0.202 F 
ATOM     14  C17 CHE B   07     18.926  68.364   6.022  0.00  0.00    +0.159 A 
ATOM     15  F2  CHE B   07     18.922  68.393   6.030  0.00  0.00    -0.202 F 
ATOM     16  C18 CHE B   07     18.259  69.377   3.251  0.00  0.00    +0.050 A 
ENDBRANCH   8   9
BRANCH   1  22
ATOM     17  C1  CHE B   07     14.626  65.571   6.307  0.00  0.00    +0.065 C 
ATOM     18  C2  CHE B   07      9.990  63.854   5.040  0.00  0.00    +0.039 A 
ATOM     19  C3  CHE B   07     10.024  63.739   5.304  0.00  0.00    +0.023 A 
ATOM     20  C4  CHE B   07     15.335  66.649   4.862  0.00  0.00    +0.004 A 
ATOM     21  C5  CHE B   07     15.193  67.126   3.759  0.00  0.00    +0.030 A 
ATOM     22  C6  CHE B   07     16.060  67.672   3.544  0.00  0.00    +0.092 A 
ATOM     23  N3  CHE B   07     15.269  66.870   4.351  0.00  0.00    -0.250 NA
ENDBRANCH   1  22
TORSDOF 2
ENDMDL
MODEL 2
REMARK VINA RESULT:     -10.1      2.743      3.505
REMARK  Name = dock_mp/CHEMBL1/CHEMBL120718.pdb
REMARK  3 active torsions:
REMARK  status: ('A' for Active; 'I' for Inactive)
REMARK    1  A    between atoms: C1_1  and  C2_2
REMARK    2  A    between atoms: C6_6  and  C7_7
REMARK    3  A    between atoms: C12_14  and  C13_15
REMARK                            x       y       z     vdW  Elec       q    Type
REMARK                         _______ _______ _______ _____ _____    ______ ____
ROOT
ATOM      1  C7  CHE B   07     15.675  66.690   5.022  0.00  0.00    +0.119 A 
ATOM      2  N1  CHE B   07     17.125  67.471   6.171  0.00  0.00    -0.169 NA
ATOM      3  N2  CHE B   07     19.806  69.071   7.113  0.00  0.00    -0.267 N 
ATOM      4  C8  CHE B   07     17.535  68.043   3.849  0.00  0.00    +0.144 C 
ATOM      5  C9  CHE B   07     21.508  70.289   6.184  0.00  0.00    +0.029 C 
ATOM      6  C10 CHE B   07     21.547  70.322   6.123  0.00  0.00    +0.057 C 
ATOM      7  C11 CHE B   07     19.465  69.005   5.949  0.00  0.00    +0.048 A 
ATOM      8  C12 CHE B   07     21.740  70.038   9.205  0.00  0.00    +0.032 A 
ENDROOT
BRANCH   8   9
ATOM      9  C13 CHE B   07     16.462  67.357   3.812  0.00  0.00    -0.011 A 
ATOM     10  C14 CHE B   07     19.271  69.368   7.450  0.00  0.00    +0.011 A 
ATOM     11  C15 CHE B   07     18.978  69.570   7.610  0.00  0.00    +0.042 A 
ATOM     12  C16 CHE B   07     17.118  68.482   5.523  0.00  0.00    +0.158 A 
ATOM     13  F1  CHE B   07     16.207  68.320   4.986  0.00  0.00    -0.202 F 
ATOM     14  C17 CHE B   07     18.676  68.989   6.740  0.00  0.00    +0.159 A 
ATOM     15  F2  CHE B   07     18.699  68.973   6.728  0.00  0.00    -0.202 F 
ATOM     16  C18 CHE B   07     17.094  67.711   4.501  0.00  0.00    +0.050 A 
ENDBRANCH   8   9
BRANCH   1  22
ATOM     17  C1  CHE B   07     16.072  66.431  10.368  0.00  0.00    +0.065 C 
ATOM     18  C2  CHE B   07     13.656  62.376  12.308  0.00  0.00    +0.039 A 
ATOM     19  C3  CHE B   07     13.762  62.501  12.547  0.00  0.00    +0.023 A 
ATOM     20  C4  CHE B   07     15.875  66.442   8.440  0.00  0.00    +0.004 A 
ATOM     21  C5  CHE B   07     15.434  65.922   7.440  0.00  0.00    +0.030 A 
ATOM     22  C6  CHE B   07     15.729  66.512   6.628  0.00  0.00    +0.092 A 
ATOM     23  N3  CHE B   07     15.671  66.201   7.978  0.00  0.00    -0.250 NA
ENDBRANCH   1  22
TORSDOF 2
ENDMDL
MODEL 3
REMARK VINA RESULT:      -9.9      2.477      7.618
REMARK  Name = dock_mp/CHEMBL1/CHEMBL120718.pdb
REMARK  3 active torsions:
REMARK  status: ('A' for Active; 'I' for Inactive)
REMARK    1  A    between atoms: C1_1  and  C2_2
REMARK    2  A    between atoms: C6_6  and  C7_7
REMARK    3  A    between atoms: C12_14  and  C13_15
REMARK                            x       y       z     vdW  Elec       q    Type
REMARK                         _______ _______ _______ _____ _____    ______ ____
ROOT
ATOM      1  C7  CHE B   07     16.638  67.307   9.729  0.00  0.00    +0.119 A 
ATOM      2  N1  CHE B   07     17.077  67.888   7.859  0.00  0.00    -0.169 NA
ATOM      3  N2  CHE B   07     16.849  68.438   4.652  0.00  0.00    -0.267 N 
ATOM      4  C8  CHE B   07     14.871  66.879   7.896  0.00  0.00    +0.144 C 
ATOM      5  C9  CHE B   07     15.359  68.110   2.944  0.00  0.00    +0.029 C 
ATOM      6  C10 CHE B   07     15.290  68.085   2.913  0.00  0.00    +0.057 C 
ATOM      7  C11 CHE B   07     15.958  67.905   5.284  0.00  0.00    +0.048 A 
ATOM      8  C12 CHE B   07     17.927  69.460   2.036  0.00  0.00    +0.032 A 
ENDROOT
BRANCH   8   9
ATOM      9  C13 CHE B   07     15.262  66.810   9.107  0.00  0.00    -0.011 A 
ATOM     10  C14 CHE B   07     17.413  68.035   4.743  0.00  0.00    +0.011 A 
ATOM     11  C15 CHE B   07     17.704  67.777   4.776  0.00  0.00    +0.042 A 
ATOM     12  C16 CHE B   07     16.586  66.889   7.415  0.00  0.00    +0.158 A 
ATOM     13  F1  CHE B   07     16.502  66.336   8.327  0.00  0.00    -0.202 F 
ATOM     14  C17 CHE B   07     17.016  67.761   5.620  0.00  0.00    +0.159 A 
ATOM     15  F2  CHE B   07     16.993  67.781   5.617  0.00  0.00    -0.202 F 
ATOM     16  C18 CHE B   07     15.622  67.117   8.227  0.00  0.00    +0.050 A 
ENDBRANCH   8   9
BRANCH   1  22
ATOM     17  C1  CHE B   07     21.151  69.645   8.005  0.00  0.00    +0.065 C 
ATOM     18  C2  CHE B   07     24.249  70.968  11.838  0.00  0.00    +0.039 A 
ATOM     19  C3  CHE B   07     24.401  71.056  11.607  0.00  0.00    +0.023 A 
ATOM     20  C4  CHE B   07     19.554  68.812   8.720  0.00  0.00    +0.004 A 
ATOM     21  C5  CHE B   07     18.920  68.443   9.682  0.00  0.00    +0.030 A 
ATOM     22  C6  CHE B   07     18.031  68.021   9.324  0.00  0.00    +0.092 A 
ATOM     23  N3  CHE B   07     19.260  68.641   9.165  0.00  0.00    -0.250 NA
ENDBRANCH   1  22
TORSDOF 2
ENDMDL
MODEL 4
REMARK VINA RESULT:      -9.8      2.630      6.411
REMARK  Name = dock_mp/CHEMBL1/CHEMBL120718.pdb
REMARK  3 active torsions:
REMARK  status: ('A' for Active; 'I' for Inactive)
REMARK    1  A    between atoms: C1_1  and  C2_2
REMARK    2  A    between atoms: C6_6  and  C7_7
REMARK    3  A    between atoms: C12_14  and  C13_15
REMARK                            x       y       z     vdW  Elec       q    Type
REMARK                         _______ _______ _______ _____ _____    ______ ____
ROOT
ATOM      1  C7  CHE B   07     17.170  68.631   2.264  0.00  0.00    +0.119 A 
ATOM      2  N1  CHE B   07     17.361  68.512   4.258  0.00  0.00    -0.169 NA
ATOM      3  N2  CHE B   07     16.700  67.972   7.406  0.00  0.00    -0.267 N 
ATOM      4  C8  CHE B   07     15.146  67.765   3.611  0.00  0.00    +0.144 C 
ATOM      5  C9  CHE B   07     14.972  67.218   8.705  0.00  0.00    +0.029 C 
ATOM      6  C10 CHE B   07     14.898  67.190   8.717  0.00  0.00    +0.057 C 
ATOM      7  C11 CHE B   07     15.889  67.760   6.527  0.00  0.00    +0.048 A 
ATOM      8  C12 CHE B   07     17.435  67.964  10.324  0.00  0.00    +0.032 A 
ENDROOT
BRANCH   8   9
ATOM      9  C13 CHE B   07     15.701  68.072   2.506  0.00  0.00    -0.011 A 
ATOM     10  C14 CHE B   07     17.258  67.580   7.251  0.00  0.00    +0.011 A 
ATOM     11  C15 CHE B   07     17.542  67.326   7.166  0.00  0.00    +0.042 A 
ATOM     12  C16 CHE B   07     16.776  67.470   4.269  0.00  0.00    +0.158 A 
ATOM     13  F1  CHE B   07     16.802  67.266   3.219  0.00  0.00    -0.202 F 
ATOM     14  C17 CHE B   07     16.979  67.650   6.292  0.00  0.00    +0.159 A 
ATOM     15  F2  CHE B   07     16.957  67.670   6.299  0.00  0.00    -0.202 F 
ATOM     16  C18 CHE B   07     15.944  68.035   3.476  0.00  0.00    +0.050 A 
ENDBRANCH   8   9
BRANCH   1  22
ATOM     17  C1  CHE B   07     21.499  69.823   5.204  0.00  0.00    +0.065 C 
ATOM     18  C2  CHE B   07     24.920  72.579   2.608  0.00  0.00    +0.039 A 
ATOM     19  C3  CHE B   07     25.051  72.552   2.866  0.00  0.00    +0.023 A 
ATOM     20  C4  CHE B   07     19.976  69.442   4.067  0.00  0.00    +0.004 A 
ATOM     21  C5  CHE B   07     19.432  69.552   2.992  0.00  0.00    +0.030 A 
ATOM     22  C6  CHE B   07     18.517  69.048   3.054  0.00  0.00    +0.092 A 
ATOM     23  N3  CHE B   07     19.725  69.493   3.569  0.00  0.00    -0.250 NA
ENDBRANCH   1  22
TORSDOF 2
ENDMDL
MODEL 5
REMARK VINA RESULT:      -9.7      1.882      4.209
REMARK  Name = dock_mp/CHEMBL1/CHEMBL120718.pdb
REMARK  3 active torsions:
REMARK  status: ('A' for Active; 'I' for Inactive)
REMARK    1  A    between atoms: C1_1  and  C2_2
REMARK    2  A    between atoms: C6_6  and  C7_7
REMARK    3  A    between atoms: C12_14  and  C13_15
REMARK                            x       y       z     vdW  Elec       q    Type
REMARK                         _______ _______ _______ _____ _____    ______ ____
ROOT
ATOM      1  C7  CHE B   07     16.989  66.861   9.593  0.00  0.00    +0.119 A 
ATOM      2  N1  CHE B   07     17.740  67.459   7.830  0.00  0.00    -0.169 NA
ATOM      3  N2  CHE B   07     19.690  68.810   5.592  0.00  0.00    -0.267 N 
ATOM      4  C8  CHE B   07     19.208  68.180   9.622  0.00  0.00    +0.144 C 
ATOM      5  C9  CHE B   07     21.652  69.987   5.494  0.00  0.00    +0.029 C 
ATOM      6  C10 CHE B   07     21.716  70.023   5.526  0.00  0.00    +0.057 C 
ATOM      7  C11 CHE B   07     19.937  68.856   6.781  0.00  0.00    +0.048 A 
ATOM      8  C12 CHE B   07     20.428  69.491   2.756  0.00  0.00    +0.032 A 
ENDROOT
BRANCH   8   9
ATOM      9  C13 CHE B   07     18.266  67.568  10.224  0.00  0.00    -0.011 A 
ATOM     10  C14 CHE B   07     19.663  68.131   5.437  0.00  0.00    +0.011 A 
ATOM     11  C15 CHE B   07     19.690  67.749   5.366  0.00  0.00    +0.042 A 
ATOM     12  C16 CHE B   07     18.868  67.183   8.195  0.00  0.00    +0.158 A 
ATOM     13  F1  CHE B   07     18.621  66.616   9.068  0.00  0.00    -0.202 F 
ATOM     14  C17 CHE B   07     19.386  67.976   6.386  0.00  0.00    +0.159 A 
ATOM     15  F2  CHE B   07     19.384  68.005   6.392  0.00  0.00    -0.202 F 
ATOM     16  C18 CHE B   07     18.539  67.773   9.283  0.00  0.00    +0.050 A 
ENDBRANCH   8   9
BRANCH   1  22
ATOM     17  C1  CHE B   07     14.959  65.965   4.706  0.00  0.00    +0.065 C 
ATOM     18  C2  CHE B   07     10.146  64.277   4.874  0.00  0.00    +0.039 A 
ATOM     19  C3  CHE B   07     10.195  64.284   4.589  0.00  0.00    +0.023 A 
ATOM     20  C4  CHE B   07     15.606  66.260   6.509  0.00  0.00    +0.004 A 
ATOM     21  C5  CHE B   07     15.401  66.232   7.702  0.00  0.00    +0.030 A 
ATOM     22  C6  CHE B   07     16.276  66.558   8.174  0.00  0.00    +0.092 A 
ATOM     23  N3  CHE B   07     15.511  66.247   7.061  0.00  0.00    -0.250 NA
ENDBRANCH   1  22
TORSDOF 2
ENDMDL
MODEL 6
REMARK VINA RESULT:      -9.7      3.116      5.098
REMARK  Name = dock_mp/CHEMBL1/CHEMBL120718.pdb
REMARK  3 active torsions:
REMARK  status: ('A' for Active; 'I' for Inactive)
REMARK    1  A    between atoms: C1_1  and  C2_2
REMARK    2  A    between atoms: C6_6  and  C7_7
REMARK    3  A    between atoms: C12_14  and  C13_15
REMARK                            x       y       z     vdW  Elec       q    Type
REMARK                         _______ _______ _______ _____ _____    ______ ____
ROOT
ATOM      1  C7  CHE B   07     16.775  68.283   3.764  0.00  0.00    +0.119 A 
ATOM      2  N1  CHE B   07     18.763  68.526   3.897  0.00  0.00    -0.169 NA
ATOM      3  N2  CHE B   07     21.857  69.219   3.132  0.00  0.00    -0.267 N 
ATOM      4  C8  CHE B   07     18.019  69.142   1.672  0.00  0.00    +0.144 C 
ATOM      5  C9  CHE B   07     23.066  69.975   1.341  0.00  0.00    +0.029 C 
ATOM      6  C10 CHE B   07     23.075  70.001   1.266  0.00  0.00    +0.057 C 
ATOM      7  C11 CHE B   07     20.947  69.347   2.337  0.00  0.00    +0.048 A 
ATOM      8  C12 CHE B   07     24.786  69.427   3.788  0.00  0.00    +0.032 A 
ENDROOT
BRANCH   8   9
ATOM      9  C13 CHE B   07     16.948  68.794   2.268  0.00  0.00    -0.011 A 
ATOM     10  C14 CHE B   07     21.690  69.602   3.698  0.00  0.00    +0.011 A 
ATOM     11  C15 CHE B   07     21.596  69.848   3.985  0.00  0.00    +0.042 A 
ATOM     12  C16 CHE B   07     18.695  69.511   3.298  0.00  0.00    +0.158 A 
ATOM     13  F1  CHE B   07     17.635  69.642   3.354  0.00  0.00    -0.202 F 
ATOM     14  C17 CHE B   07     20.731  69.468   3.444  0.00  0.00    +0.159 A 
ATOM     15  F2  CHE B   07     20.738  69.449   3.422  0.00  0.00    -0.202 F 
ATOM     16  C18 CHE B   07     17.919  68.896   2.485  0.00  0.00    +0.050 A 
ENDBRANCH   8   9
BRANCH   1  22
ATOM     17  C1  CHE B   07     19.901  67.189   7.986  0.00  0.00    +0.065 C 
ATOM     18  C2  CHE B   07     17.350  67.376  12.402  0.00  0.00    +0.039 A 
ATOM     19  C3  CHE B   07     17.617  67.307  12.492  0.00  0.00    +0.023 A 
ATOM     20  C4  CHE B   07     18.697  67.596   6.524  0.00  0.00    +0.004 A 
ATOM     21  C5  CHE B   07     17.583  67.884   6.148  0.00  0.00    +0.030 A 
ATOM     22  C6  CHE B   07     17.621  67.969   5.105  0.00  0.00    +0.092 A 
ATOM     23  N3  CHE B   07     18.181  67.729   6.350  0.00  0.00    -0.250 NA
ENDBRANCH   1  22
TORSDOF 2
ENDMDL
MODEL 7
REMARK VINA RESULT:      -9.7      2.281      6.464
REMARK  Name = dock_mp/CHEMBL1/CHEMBL120718.pdb
REMARK  3 active torsions:
REMARK  status: ('A' for Active; 'I' for Inactive)
REMARK    1  A    between atoms: C1_1  and  C2_2
REMARK    2  A    between atoms: C6_6  and  C7_7
REMARK    3  A    between atoms: C12_14  and  C13_15
REMARK                            x       y       z     vdW  Elec       q    Type
REMARK                         _______ _______ _______ _____ _____    ______ ____
ROOT
ATOM      1  C7  CHE B   07     15.387  66.160   7.556  0.00  0.00    +0.119 A 
ATOM      2  N1  CHE B   07     16.802  67.009   6.413  0.00  0.00    -0.169 NA
ATOM      3  N2  CHE B   07     18.366  68.263   3.840  0.00  0.00    -0.267 N 
ATOM      4  C8  CHE B   07     14.842  66.544   5.061  0.00  0.00    +0.144 C 
ATOM      5  C9  CHE B   07     17.996  68.652   1.614  0.00  0.00    +0.029 C 
ATOM      6  C10 CHE B   07     17.952  68.651   1.547  0.00  0.00    +0.057 C 
ATOM      7  C11 CHE B   07     17.235  67.825   3.762  0.00  0.00    +0.048 A 
ATOM      8  C12 CHE B   07     20.754  69.544   2.532  0.00  0.00    +0.032 A 
ENDROOT
BRANCH   8   9
ATOM      9  C13 CHE B   07     14.519  66.132   6.223  0.00  0.00    -0.011 A 
ATOM     10  C14 CHE B   07     18.334  68.774   4.314  0.00  0.00    +0.011 A 
ATOM     11  C15 CHE B   07     18.285  69.079   4.552  0.00  0.00    +0.042 A 
ATOM     12  C16 CHE B   07     15.967  67.675   5.839  0.00  0.00    +0.158 A 
ATOM     13  F1  CHE B   07     15.145  67.510   6.505  0.00  0.00    -0.202 F 
ATOM     14  C17 CHE B   07     17.565  68.280   4.723  0.00  0.00    +0.159 A 
ATOM     15  F2  CHE B   07     17.569  68.256   4.705  0.00  0.00    -0.202 F 
ATOM     16  C18 CHE B   07     15.294  66.587   5.784  0.00  0.00    +0.050 A 
ENDBRANCH   8   9
BRANCH   1  22
ATOM     17  C1  CHE B   07     20.323  67.639   9.055  0.00  0.00    +0.065 C 
ATOM     18  C2  CHE B   07     20.701  68.344  14.095  0.00  0.00    +0.039 A 
ATOM     19  C3  CHE B   07     20.971  68.404  14.007  0.00  0.00    +0.023 A 
ATOM     20  C4  CHE B   07     18.513  67.109   8.608  0.00  0.00    +0.004 A 
ATOM     21  C5  CHE B   07     17.387  66.857   8.973  0.00  0.00    +0.030 A 
ATOM     22  C6  CHE B   07     16.834  66.609   8.120  0.00  0.00    +0.092 A 
ATOM     23  N3  CHE B   07     17.992  66.992   8.777  0.00  0.00    -0.250 NA
ENDBRANCH   1  22
TORSDOF 2
ENDMDL
MODEL 8
REMARK VINA RESULT:      -9.6      2.349      6.724
REMARK  Name = dock_mp/CHEMBL1/CHEMBL120718.pdb
REMARK  3 active torsions:
REMARK  status: ('A' for Active; 'I' for Inactive)
REMARK    1  A    between atoms: C1_1  and  C2_2
REMARK    2  A    between atoms: C6_6  and  C7_7
REMARK    3  A    between atoms: C12_14  and  C13_15
REMARK                            x       y       z     vdW  Elec       q    Type
REMARK                         _______ _______ _______ _____ _____    ______ ____
ROOT
ATOM      1  C7  CHE B   07     19.301  69.506   2.372  0.00  0.00    +0.119 A 
ATOM      2  N1  CHE B   07     18.619  68.641   4.050  0.00  0.00    -0.169 NA
ATOM      3  N2  CHE B   07     16.738  66.984   6.137  0.00  0.00    -0.267 N 
ATOM      4  C8  CHE B   07     17.038  68.269   2.248  0.00  0.00    +0.144 C 
ATOM      5  C9  CHE B   07     14.744  65.859   6.147  0.00  0.00    +0.029 C 
ATOM      6  C10 CHE B   07     14.677  65.831   6.114  0.00  0.00    +0.057 C 
ATOM      7  C11 CHE B   07     16.430  67.145   4.973  0.00  0.00    +0.048 A 
ATOM      8  C12 CHE B   07     16.122  65.856   8.857  0.00  0.00    +0.032 A 
ENDROOT
BRANCH   8   9
ATOM      9  C13 CHE B   07     17.969  68.949   1.705  0.00  0.00    -0.011 A 
ATOM     10  C14 CHE B   07     16.809  67.626   6.404  0.00  0.00    +0.011 A 
ATOM     11  C15 CHE B   07     16.806  67.991   6.541  0.00  0.00    +0.042 A 
ATOM     12  C16 CHE B   07     17.500  69.002   3.803  0.00  0.00    +0.158 A 
ATOM     13  F1  CHE B   07     17.728  69.701   3.026  0.00  0.00    -0.202 F 
ATOM     14  C17 CHE B   07     17.041  67.931   5.479  0.00  0.00    +0.159 A 
ATOM     15  F2  CHE B   07     17.041  67.903   5.469  0.00  0.00    -0.202 F 
ATOM     16  C18 CHE B   07     17.738  68.596   2.612  0.00  0.00    +0.050 A 
ENDBRANCH   8   9
BRANCH   1  22
ATOM     17  C1  CHE B   07     21.584  69.657   7.226  0.00  0.00    +0.065 C 
ATOM     18  C2  CHE B   07     26.681  69.597   6.986  0.00  0.00    +0.039 A 
ATOM     19  C3  CHE B   07     26.637  69.608   7.272  0.00  0.00    +0.023 A 
ATOM     20  C4  CHE B   07     20.850  69.600   5.434  0.00  0.00    +0.004 A 
ATOM     21  C5  CHE B   07     21.035  69.556   4.239  0.00  0.00    +0.030 A 
ATOM     22  C6  CHE B   07     20.094  69.549   3.779  0.00  0.00    +0.092 A 
ATOM     23  N3  CHE B   07     20.936  69.579   4.881  0.00  0.00    -0.250 NA
ENDBRANCH   1  22
TORSDOF 2
ENDMDL
MODEL 9
REMARK VINA RESULT:      -9.4      2.579      5.257
REMARK  Name = dock_mp/CHEMBL1/CHEMBL120718.pdb
REMARK  3 active torsions:
REMARK  status: ('A' for Active; 'I' for Inactive)
REMARK    1  A    between atoms: C1_1  and  C2_2
REMARK    2  A    between atoms: C6_6  and  C7_7
REMARK    3  A    between atoms: C12_14  and  C13_15
REMARK                            x       y       z     vdW  Elec       q    Type
REMARK                         _______ _______ _______ _____ _____    ______ ____
ROOT
ATOM      1  C7  CHE B   07     15.705  67.056   5.719  0.00  0.00    +0.119 A 
ATOM      2  N1  CHE B   07     17.560  67.778   5.469  0.00  0.00    -0.169 NA
ATOM      3  N2  CHE B   07     20.247  69.006   4.085  0.00  0.00    -0.267 N 
ATOM      4  C8  CHE B   07     16.414  67.738   3.332  0.00  0.00    +0.144 C 
ATOM      5  C9  CHE B   07     20.986  69.643   2.014  0.00  0.00    +0.029 C 
ATOM      6  C10 CHE B   07     20.978  69.654   1.935  0.00  0.00    +0.057 C 
ATOM      7  C11 CHE B   07     19.245  68.753   3.446  0.00  0.00    +0.048 A 
ATOM      8  C12 CHE B   07     23.077  70.022   4.188  0.00  0.00    +0.032 A 
ENDROOT
BRANCH   8   9
ATOM      9  C13 CHE B   07     15.553  67.278   4.152  0.00  0.00    -0.011 A 
ATOM     10  C14 CHE B   07     20.052  69.457   4.584  0.00  0.00    +0.011 A 
ATOM     11  C15 CHE B   07     19.930  69.734   4.830  0.00  0.00    +0.042 A 
ATOM     12  C16 CHE B   07     17.159  68.592   4.716  0.00  0.00    +0.158 A 
ATOM     13  F1  CHE B   07     16.114  68.487   4.922  0.00  0.00    -0.202 F 
ATOM     14  C17 CHE B   07     19.139  69.052   4.526  0.00  0.00    +0.159 A 
ATOM     15  F2  CHE B   07     19.148  69.031   4.507  0.00  0.00    -0.202 F 
ATOM     16  C18 CHE B   07     16.482  67.647   4.179  0.00  0.00    +0.050 A 
ENDBRANCH   8   9
BRANCH   1  22
ATOM     17  C1  CHE B   07     19.488  67.717   9.467  0.00  0.00    +0.065 C 
ATOM     18  C2  CHE B   07     17.724  66.897  14.184  0.00  0.00    +0.039 A 
ATOM     19  C3  CHE B   07     18.001  66.963  14.237  0.00  0.00    +0.023 A 
ATOM     20  C4  CHE B   07     18.058  67.457   8.186  0.00  0.00    +0.004 A 
ATOM     21  C5  CHE B   07     16.901  67.181   7.966  0.00  0.00    +0.030 A 
ATOM     22  C6  CHE B   07     16.762  67.228   6.930  0.00  0.00    +0.092 A 
ATOM     23  N3  CHE B   07     17.522  67.329   8.084  0.00  0.00    -0.250 NA
ENDBRANCH   1  22
TORSDOF 2
ENDMDL
MODEL 10
REMARK VINA RESULT:      -9.3      2.698      6.090
REMARK  Name = dock_mp/CHEMBL1/CHEMBL120718.pdb
REMARK  3 active torsions:
REMARK  status: ('A' for Active; 'I' for Inactive)
REMARK    1  A    between atoms: C1_1  and  C2_2
REMARK    2  A    between atoms: C6_6  and  C7_7
REMARK    3  A    between atoms: C12_14  and  C13_15
REMARK                            x       y       z     vdW  Elec       q    Type
REMARK                         _______ _______ _______ _____ _____    ______ ____
ROOT
ATOM      1  C7  CHE B   07     16.596  68.143   4.025  0.00  0.00    +0.119 A 
ATOM      2  N1  CHE B   07     17.522  68.357   5.793  0.00  0.00    -0.169 NA
ATOM      3  N2  CHE B   07     18.097  68.402   9.003  0.00  0.00    -0.267 N 
ATOM      4  C8  CHE B   07     15.236  67.631   6.159  0.00  0.00    +0.144 C 
ATOM      5  C9  CHE B   07     16.991  67.977  10.963  0.00  0.00    +0.029 C 
ATOM      6  C10 CHE B   07     16.928  67.955  11.007  0.00  0.00    +0.057 C 
ATOM      7  C11 CHE B   07     17.018  68.086   8.542  0.00  0.00    +0.048 A 
ATOM      8  C12 CHE B   07     19.871  68.854  11.391  0.00  0.00    +0.032 A 
ENDROOT
BRANCH   8   9
ATOM      9  C13 CHE B   07     15.333  67.714   4.891  0.00  0.00    -0.011 A 
ATOM     10  C14 CHE B   07     18.554  67.950   8.732  0.00  0.00    +0.011 A 
ATOM     11  C15 CHE B   07     18.784  67.665   8.599  0.00  0.00    +0.042 A 
ATOM     12  C16 CHE B   07     16.989  67.354   6.215  0.00  0.00    +0.158 A 
ATOM     13  F1  CHE B   07     16.619  66.967   5.289  0.00  0.00    -0.202 F 
ATOM     14  C17 CHE B   07     17.936  67.871   7.948  0.00  0.00    +0.159 A 
ATOM     15  F2  CHE B   07     17.918  67.893   7.959  0.00  0.00    -0.202 F 
ATOM     16  C18 CHE B   07     15.922  67.830   5.691  0.00  0.00    +0.050 A 
ENDBRANCH   8   9
BRANCH   1  22
ATOM     17  C1  CHE B   07     21.633  69.780   4.893  0.00  0.00    +0.065 C 
ATOM     18  C2  CHE B   07     24.494  69.604   0.671  0.00  0.00    +0.039 A 
ATOM     19  C3  CHE B   07     24.684  69.704   0.866  0.00  0.00    +0.023 A 
ATOM     20  C4  CHE B   07     19.838  69.173   4.485  0.00  0.00    +0.004 A 
ATOM     21  C5  CHE B   07     19.044  68.757   3.672  0.00  0.00    +0.030 A 
ATOM     22  C6  CHE B   07     18.135  68.615   4.171  0.00  0.00    +0.092 A 
ATOM     23  N3  CHE B   07     19.471  68.981   4.109  0.00  0.00    -0.250 NA
ENDBRANCH   1  22
TORSDOF 2
ENDMDL
