MODEL 1
REMARK VINA RESULT:      -7.1      0.000      0.000
REMARK  Name = dock_mp/CHEMBL1/CHEMBL118928.pdb
REMARK  4 active torsions:
REMARK  status: ('A' for Active; 'I' for Inactive)
REMARK    1  A    between atoms: C1_1  and  C2_2
REMARK    2  A    between atoms: C6_6  and  C7_7
REMARK    3  A    between atoms: C9_11  and  C10_12
REMARK    4  A    between atoms: C13_15  and  O1_16
REMARK                            x       y       z     vdW  Elec       q    Type
REMARK                         _______ _______ _______ _____ _____    ______ ____
ROOT
ATOM      1  C7  CHE B   09     18.243  69.419   7.919  0.00  0.00    +0.118 A 
ATOM      2  N1  CHE B   09     22.434  69.321  12.213  0.00  0.00    -0.172 NA
ATOM      3  N2  CHE B   09     23.079  68.663  14.333  0.00  0.00    -0.284 N 
ATOM      4  C8  CHE B   09     19.753  68.286  11.959  0.00  0.00    +0.114 A 
ATOM      5  C9  CHE B   09     17.388  68.709   8.702  0.00  0.00    +0.029 A 
ATOM      6  H7  CHE B   09     22.235  68.558  13.751  0.00  0.00    +0.188 HD
ENDROOT
BRANCH   1  12
ATOM      7  C1  CHE B   09     20.142  67.050   6.388  0.00  0.00    +0.065 C 
ATOM      8  C2  CHE B   09     21.484  69.026   8.313  0.00  0.00    +0.039 A 
ATOM      9  C3  CHE B   09     21.165  68.274   7.622  0.00  0.00    +0.023 A 
ATOM     10  C4  CHE B   09     19.477  67.534   6.640  0.00  0.00    +0.004 A 
ATOM     11  C5  CHE B   09     22.386  71.324  10.404  0.00  0.00    +0.030 A 
ATOM     12  C6  CHE B   09     20.271  69.911   8.772  0.00  0.00    +0.092 A 
ATOM     13  N3  CHE B   09     20.735  69.573   8.597  0.00  0.00    -0.250 NA
ENDBRANCH   1  12
BRANCH   5  14
ATOM     14  C10 CHE B   09     16.973  68.364   9.083  0.00  0.00    -0.014 A 
ATOM     15  C11 CHE B   09     14.989  64.669   3.478  0.00  0.00    +0.012 A 
ATOM     16  C12 CHE B   09     16.007  66.977   7.847  0.00  0.00    +0.046 A 
ATOM     17  C13 CHE B   09     14.703  65.016   5.860  0.00  0.00    +0.117 A 
ATOM     18  C14 CHE B   09     15.542  66.590   8.273  0.00  0.00    +0.046 A 
ATOM     19  C15 CHE B   09     16.821  68.530  10.282  0.00  0.00    +0.012 A 
BRANCH  17  20
ATOM     20  O1  CHE B   09     13.425  63.076   3.851  0.00  0.00    -0.507 OA
ATOM     21  H11 CHE B   09     13.947  67.908   8.984  0.00  0.00    +0.292 HD
ENDBRANCH  17  20
ENDBRANCH   5  14
TORSDOF 3
ENDMDL
MODEL 2
REMARK VINA RESULT:      -7.1      2.481      3.667
REMARK  Name = dock_mp/CHEMBL1/CHEMBL118928.pdb
REMARK  4 active torsions:
REMARK  status: ('A' for Active; 'I' for Inactive)
REMARK    1  A    between atoms: C1_1  and  C2_2
REMARK    2  A    between atoms: C6_6  and  C7_7
REMARK    3  A    between atoms: C9_11  and  C10_12
REMARK    4  A    between atoms: C13_15  and  O1_16
REMARK                            x       y       z     vdW  Elec       q    Type
REMARK                         _______ _______ _______ _____ _____    ______ ____
ROOT
ATOM      1  C7  CHE B   09     19.005  69.733   7.648  0.00  0.00    +0.118 A 
ATOM      2  N1  CHE B   09     24.882  70.151   8.789  0.00  0.00    -0.172 NA
ATOM      3  N2  CHE B   09     27.057  70.105   8.007  0.00  0.00    -0.284 N 
ATOM      4  C8  CHE B   09     23.292  69.694   6.424  0.00  0.00    +0.114 A 
ATOM      5  C9  CHE B   09     19.251  69.521   6.327  0.00  0.00    +0.029 A 
ATOM      6  H7  CHE B   09     26.119  69.999   7.592  0.00  0.00    +0.188 HD
ENDROOT
BRANCH   1  12
ATOM      7  C1  CHE B   09     19.579  66.524   8.614  0.00  0.00    +0.065 C 
ATOM      8  C2  CHE B   09     21.391  68.753   9.687  0.00  0.00    +0.039 A 
ATOM      9  C3  CHE B   09     20.852  67.875   9.402  0.00  0.00    +0.023 A 
ATOM     10  C4  CHE B   09     19.245  67.222   8.239  0.00  0.00    +0.004 A 
ATOM     11  C5  CHE B   09     22.983  71.446  10.512  0.00  0.00    +0.030 A 
ATOM     12  C6  CHE B   09     20.782  70.028   9.003  0.00  0.00    +0.092 A 
ATOM     13  N3  CHE B   09     21.015  69.541   9.264  0.00  0.00    -0.250 NA
ENDBRANCH   1  12
BRANCH   5  14
ATOM     14  C10 CHE B   09     19.370  69.419   5.686  0.00  0.00    -0.014 A 
ATOM     15  C11 CHE B   09     13.856  65.116   5.400  0.00  0.00    +0.012 A 
ATOM     16  C12 CHE B   09     17.910  68.091   4.989  0.00  0.00    +0.046 A 
ATOM     17  C13 CHE B   09     15.677  66.135   4.165  0.00  0.00    +0.117 A 
ATOM     18  C14 CHE B   09     18.043  67.976   4.270  0.00  0.00    +0.046 A 
ATOM     19  C15 CHE B   09     20.283  69.926   5.055  0.00  0.00    +0.012 A 
BRANCH  17  20
ATOM     20  O1  CHE B   09     13.437  64.185   3.380  0.00  0.00    -0.507 OA
ATOM     21  H11 CHE B   09     17.434  70.014   3.422  0.00  0.00    +0.292 HD
ENDBRANCH  17  20
ENDBRANCH   5  14
TORSDOF 3
ENDMDL
MODEL 3
REMARK VINA RESULT:      -6.4      3.090      4.306
REMARK  Name = dock_mp/CHEMBL1/CHEMBL118928.pdb
REMARK  4 active torsions:
REMARK  status: ('A' for Active; 'I' for Inactive)
REMARK    1  A    between atoms: C1_1  and  C2_2
REMARK    2  A    between atoms: C6_6  and  C7_7
REMARK    3  A    between atoms: C9_11  and  C10_12
REMARK    4  A    between atoms: C13_15  and  O1_16
REMARK                            x       y       z     vdW  Elec       q    Type
REMARK                         _______ _______ _______ _____ _____    ______ ____
ROOT
ATOM      1  C7  CHE B   09     21.487  70.622  10.170  0.00  0.00    +0.118 A 
ATOM      2  N1  CHE B   09     26.411  67.378   9.057  0.00  0.00    -0.172 NA
ATOM      3  N2  CHE B   09     27.624  65.440   9.404  0.00  0.00    -0.284 N 
ATOM      4  C8  CHE B   09     24.038  66.997  10.654  0.00  0.00    +0.114 A 
ATOM      5  C9  CHE B   09     20.999  69.648  10.986  0.00  0.00    +0.029 A 
ATOM      6  H7  CHE B   09     26.720  65.815   9.729  0.00  0.00    +0.188 HD
ENDROOT
BRANCH   1  12
ATOM      7  C1  CHE B   09     20.493  69.712   7.048  0.00  0.00    +0.065 C 
ATOM      8  C2  CHE B   09     23.490  69.804   7.695  0.00  0.00    +0.039 A 
ATOM      9  C3  CHE B   09     22.491  69.725   7.320  0.00  0.00    +0.023 A 
ATOM     10  C4  CHE B   09     20.491  69.961   7.871  0.00  0.00    +0.004 A 
ATOM     11  C5  CHE B   09     26.486  70.060   8.887  0.00  0.00    +0.030 A 
ATOM     12  C6  CHE B   09     23.487  70.258   9.198  0.00  0.00    +0.092 A 
ATOM     13  N3  CHE B   09     23.488  70.085   8.623  0.00  0.00    -0.250 NA
ENDBRANCH   1  12
BRANCH   5  14
ATOM     14  C10 CHE B   09     20.763  69.176  11.382  0.00  0.00    -0.014 A 
ATOM     15  C11 CHE B   09     15.643  67.943   6.771  0.00  0.00    +0.012 A 
ATOM     16  C12 CHE B   09     19.073  68.370  10.445  0.00  0.00    +0.046 A 
ATOM     17  C13 CHE B   09     16.620  67.325   8.901  0.00  0.00    +0.117 A 
ATOM     18  C14 CHE B   09     18.808  67.841  10.889  0.00  0.00    +0.046 A 
ATOM     19  C15 CHE B   09     21.246  68.856  12.456  0.00  0.00    +0.012 A 
BRANCH  17  20
ATOM     20  O1  CHE B   09     14.182  66.310   7.334  0.00  0.00    -0.507 OA
ATOM     21  H11 CHE B   09     19.776  66.251  11.654  0.00  0.00    +0.292 HD
ENDBRANCH  17  20
ENDBRANCH   5  14
TORSDOF 3
ENDMDL
MODEL 4
REMARK VINA RESULT:      -6.2      2.469      4.058
REMARK  Name = dock_mp/CHEMBL1/CHEMBL118928.pdb
REMARK  4 active torsions:
REMARK  status: ('A' for Active; 'I' for Inactive)
REMARK    1  A    between atoms: C1_1  and  C2_2
REMARK    2  A    between atoms: C6_6  and  C7_7
REMARK    3  A    between atoms: C9_11  and  C10_12
REMARK    4  A    between atoms: C13_15  and  O1_16
REMARK                            x       y       z     vdW  Elec       q    Type
REMARK                         _______ _______ _______ _____ _____    ______ ____
ROOT
ATOM      1  C7  CHE B   09     20.884  68.473  10.109  0.00  0.00    +0.118 A 
ATOM      2  N1  CHE B   09     24.085  66.216  14.656  0.00  0.00    -0.172 NA
ATOM      3  N2  CHE B   09     24.158  65.456  16.838  0.00  0.00    -0.284 N 
ATOM      4  C8  CHE B   09     21.321  66.955  14.279  0.00  0.00    +0.114 A 
ATOM      5  C9  CHE B   09     19.755  68.464  10.867  0.00  0.00    +0.029 A 
ATOM      6  H7  CHE B   09     23.432  65.831  16.210  0.00  0.00    +0.188 HD
ENDROOT
BRANCH   1  12
ATOM      7  C1  CHE B   09     22.484  71.421  10.672  0.00  0.00    +0.065 C 
ATOM      8  C2  CHE B   09     23.846  68.800  11.500  0.00  0.00    +0.039 A 
ATOM      9  C3  CHE B   09     23.505  69.787  11.270  0.00  0.00    +0.023 A 
ATOM     10  C4  CHE B   09     21.902  70.833  10.435  0.00  0.00    +0.004 A 
ATOM     11  C5  CHE B   09     24.822  65.789  12.170  0.00  0.00    +0.030 A 
ATOM     12  C6  CHE B   09     22.784  67.728  11.066  0.00  0.00    +0.092 A 
ATOM     13  N3  CHE B   09     23.190  68.137  11.232  0.00  0.00    -0.250 NA
ENDBRANCH   1  12
BRANCH   5  14
ATOM     14  C10 CHE B   09     19.207  68.460  11.235  0.00  0.00    -0.014 A 
ATOM     15  C11 CHE B   09     15.653  65.811   5.817  0.00  0.00    +0.012 A 
ATOM     16  C12 CHE B   09     17.664  67.699  10.040  0.00  0.00    +0.046 A 
ATOM     17  C13 CHE B   09     15.542  66.559   8.120  0.00  0.00    +0.117 A 
ATOM     18  C14 CHE B   09     17.050  67.694  10.453  0.00  0.00    +0.046 A 
ATOM     19  C15 CHE B   09     19.139  68.834  12.395  0.00  0.00    +0.012 A 
BRANCH  17  20
ATOM     20  O1  CHE B   09     13.453  65.419   6.178  0.00  0.00    -0.507 OA
ATOM     21  H11 CHE B   09     17.915  65.777  11.648  0.00  0.00    +0.292 HD
ENDBRANCH  17  20
ENDBRANCH   5  14
TORSDOF 3
ENDMDL
MODEL 5
REMARK VINA RESULT:      -5.3      3.787      5.436
REMARK  Name = dock_mp/CHEMBL1/CHEMBL118928.pdb
REMARK  4 active torsions:
REMARK  status: ('A' for Active; 'I' for Inactive)
REMARK    1  A    between atoms: C1_1  and  C2_2
REMARK    2  A    between atoms: C6_6  and  C7_7
REMARK    3  A    between atoms: C9_11  and  C10_12
REMARK    4  A    between atoms: C13_15  and  O1_16
REMARK                            x       y       z     vdW  Elec       q    Type
REMARK                         _______ _______ _______ _____ _____    ______ ____
ROOT
ATOM      1  C7  CHE B   09     22.672  68.203  10.153  0.00  0.00    +0.118 A 
ATOM      2  N1  CHE B   09     22.377  68.772  16.119  0.00  0.00    -0.172 NA
ATOM      3  N2  CHE B   09     21.089  69.056  18.018  0.00  0.00    -0.284 N 
ATOM      4  C8  CHE B   09     20.444  68.743  13.977  0.00  0.00    +0.114 A 
ATOM      5  C9  CHE B   09     21.320  68.310  10.051  0.00  0.00    +0.029 A 
ATOM      6  H7  CHE B   09     20.908  68.980  17.007  0.00  0.00    +0.188 HD
ENDROOT
BRANCH   1  12
ATOM      7  C1  CHE B   09     23.227  71.549  10.400  0.00  0.00    +0.065 C 
ATOM      8  C2  CHE B   09     23.989  69.730  12.750  0.00  0.00    +0.039 A 
ATOM      9  C3  CHE B   09     23.779  70.487  12.023  0.00  0.00    +0.023 A 
ATOM     10  C4  CHE B   09     22.998  70.773  10.108  0.00  0.00    +0.004 A 
ATOM     11  C5  CHE B   09     24.600  67.397  14.906  0.00  0.00    +0.030 A 
ATOM     12  C6  CHE B   09     23.571  68.314  12.217  0.00  0.00    +0.092 A 
ATOM     13  N3  CHE B   09     23.731  68.855  12.421  0.00  0.00    -0.250 NA
ENDBRANCH   1  12
BRANCH   5  14
ATOM     14  C10 CHE B   09     20.664  68.362  10.001  0.00  0.00    -0.014 A 
ATOM     15  C11 CHE B   09     21.310  69.291   3.093  0.00  0.00    +0.012 A 
ATOM     16  C12 CHE B   09     20.218  68.677   7.980  0.00  0.00    +0.046 A 
ATOM     17  C13 CHE B   09     19.778  69.132   4.965  0.00  0.00    +0.117 A 
ATOM     18  C14 CHE B   09     19.483  68.735   7.924  0.00  0.00    +0.046 A 
ATOM     19  C15 CHE B   09     19.883  68.284  10.936  0.00  0.00    +0.012 A 
BRANCH  17  20
ATOM     20  O1  CHE B   09     19.378  69.584   1.953  0.00  0.00    -0.507 OA
ATOM     21  H11 CHE B   09     19.310  66.342   8.233  0.00  0.00    +0.292 HD
ENDBRANCH  17  20
ENDBRANCH   5  14
TORSDOF 3
ENDMDL
MODEL 6
REMARK VINA RESULT:      -4.1      6.428      7.664
REMARK  Name = dock_mp/CHEMBL1/CHEMBL118928.pdb
REMARK  4 active torsions:
REMARK  status: ('A' for Active; 'I' for Inactive)
REMARK    1  A    between atoms: C1_1  and  C2_2
REMARK    2  A    between atoms: C6_6  and  C7_7
REMARK    3  A    between atoms: C9_11  and  C10_12
REMARK    4  A    between atoms: C13_15  and  O1_16
REMARK                            x       y       z     vdW  Elec       q    Type
REMARK                         _______ _______ _______ _____ _____    ______ ____
ROOT
ATOM      1  C7  CHE B   09     23.153  67.436  10.990  0.00  0.00    +0.118 A 
ATOM      2  N1  CHE B   09     27.969  70.632  12.602  0.00  0.00    -0.172 NA
ATOM      3  N2  CHE B   09     28.843  72.534  13.584  0.00  0.00    -0.284 N 
ATOM      4  C8  CHE B   09     25.115  70.995  12.824  0.00  0.00    +0.114 A 
ATOM      5  C9  CHE B   09     22.322  68.386  11.495  0.00  0.00    +0.029 A 
ATOM      6  H7  CHE B   09     27.899  72.163  13.402  0.00  0.00    +0.188 HD
ENDROOT
BRANCH   1  12
ATOM      7  C1  CHE B   09     23.772  68.826   7.949  0.00  0.00    +0.065 C 
ATOM      8  C2  CHE B   09     26.091  68.455   9.922  0.00  0.00    +0.039 A 
ATOM      9  C3  CHE B   09     25.395  68.648   9.134  0.00  0.00    +0.023 A 
ATOM     10  C4  CHE B   09     23.378  68.468   8.624  0.00  0.00    +0.004 A 
ATOM     11  C5  CHE B   09     28.149  67.846  12.343  0.00  0.00    +0.030 A 
ATOM     12  C6  CHE B   09     25.371  67.800  11.154  0.00  0.00    +0.092 A 
ATOM     13  N3  CHE B   09     25.646  68.050  10.683  0.00  0.00    -0.250 NA
ENDBRANCH   1  12
BRANCH   5  14
ATOM     14  C10 CHE B   09     21.918  68.847  11.740  0.00  0.00    -0.014 A 
ATOM     15  C11 CHE B   09     19.858  64.343  16.687  0.00  0.00    +0.012 A 
ATOM     16  C12 CHE B   09     20.942  68.004  13.389  0.00  0.00    +0.046 A 
ATOM     17  C13 CHE B   09     19.618  66.578  15.777  0.00  0.00    +0.117 A 
ATOM     18  C14 CHE B   09     20.490  68.521  13.664  0.00  0.00    +0.046 A 
ATOM     19  C15 CHE B   09     21.789  69.975  11.291  0.00  0.00    +0.012 A 
BRANCH  17  20
ATOM     20  O1  CHE B   09     18.318  65.124  18.151  0.00  0.00    -0.507 OA
ATOM     21  H11 CHE B   09     21.601  70.193  14.478  0.00  0.00    +0.292 HD
ENDBRANCH  17  20
ENDBRANCH   5  14
TORSDOF 3
ENDMDL
