MODEL 1
REMARK VINA RESULT:     -10.2      0.000      0.000
REMARK  Name = dock_mp/CHEMBL1/CHEMBL126676.pdb
REMARK  2 active torsions:
REMARK  status: ('A' for Active; 'I' for Inactive)
REMARK    1  A    between atoms: C4_4  and  C5_5
REMARK    2  A    between atoms: C7_9  and  C8_10
REMARK                            x       y       z     vdW  Elec       q    Type
REMARK                         _______ _______ _______ _____ _____    ______ ____
ROOT
ATOM      1  C5  CHE B   06     14.872  66.613   6.409  0.00  0.00    +0.100 A 
ATOM      2  N1  CHE B   06     14.723  66.558   7.668  0.00  0.00    -0.173 NA
ATOM      3  N2  CHE B   06     14.849  66.602   6.425  0.00  0.00    -0.284 N 
ATOM      4  C6  CHE B   06     14.913  66.601   4.062  0.00  0.00    +0.114 A 
ATOM      5  C7  CHE B   06     19.043  68.709  11.775  0.00  0.00    +0.028 A 
ATOM      6  H4  CHE B   06     16.387  67.397  10.049  0.00  0.00    +0.188 HD
ENDROOT
BRANCH   5   7
ATOM      7  C8  CHE B   06     16.300  67.276   4.306  0.00  0.00    -0.004 A 
ATOM      8  C9  CHE B   06     17.614  68.012   5.737  0.00  0.00    +0.029 A 
ATOM      9  C10 CHE B   06     17.530  68.015   3.451  0.00  0.00    +0.112 A 
ATOM     10  N3  CHE B   06     17.514  68.032   2.290  0.00  0.00    -0.255 NA
ATOM     11  C11 CHE B   06     18.475  68.529   5.138  0.00  0.00    +0.072 A 
ATOM     12  C12 CHE B   06     19.863  69.308   6.518  0.00  0.00    +0.028 A 
ATOM     13  C13 CHE B   06     17.677  68.103   3.349  0.00  0.00    +0.002 A 
ATOM     14  C14 CHE B   06     17.761  68.100   5.635  0.00  0.00    +0.001 A 
ATOM     15  C15 CHE B   06     18.183  68.300   7.685  0.00  0.00    +0.010 A 
ATOM     16  C16 CHE B   06     18.559  68.526   7.424  0.00  0.00    +0.008 A 
ENDBRANCH   5   7
BRANCH   1  20
ATOM     17  C1  CHE B   06     16.987  67.021  12.191  0.00  0.00    +0.000 A 
ATOM     18  C2  CHE B   06     15.881  66.601   9.393  0.00  0.00    +0.001 A 
ATOM     19  C3  CHE B   06     17.586  68.178  12.687  0.00  0.00    +0.010 A 
ATOM     20  C4  CHE B   06     16.781  67.601  10.949  0.00  0.00    +0.003 A 
ATOM     21  C17 CHE B   06     16.681  67.160  11.139  0.00  0.00    +0.010 A 
ATOM     22  C18 CHE B   06     16.183  66.444  10.454  0.00  0.00    +0.001 A 
ENDBRANCH   1  20
TORSDOF 2
ENDMDL
MODEL 2
REMARK VINA RESULT:     -10.0      3.069      6.935
REMARK  Name = dock_mp/CHEMBL1/CHEMBL126676.pdb
REMARK  2 active torsions:
REMARK  status: ('A' for Active; 'I' for Inactive)
REMARK    1  A    between atoms: C4_4  and  C5_5
REMARK    2  A    between atoms: C7_9  and  C8_10
REMARK                            x       y       z     vdW  Elec       q    Type
REMARK                         _______ _______ _______ _____ _____    ______ ____
ROOT
ATOM      1  C5  CHE B   06     17.510  68.714   2.244  0.00  0.00    +0.100 A 
ATOM      2  N1  CHE B   06     18.563  69.094   1.648  0.00  0.00    -0.173 NA
ATOM      3  N2  CHE B   06     17.513  68.722   2.215  0.00  0.00    -0.284 N 
ATOM      4  C6  CHE B   06     15.438  68.039   3.118  0.00  0.00    +0.114 A 
ATOM      5  C7  CHE B   06     24.177  69.657   4.534  0.00  0.00    +0.028 A 
ATOM      6  H4  CHE B   06     21.438  69.539   2.476  0.00  0.00    +0.188 HD
ENDROOT
BRANCH   5   7
ATOM      7  C8  CHE B   06     16.283  67.913   4.425  0.00  0.00    -0.004 A 
ATOM      8  C9  CHE B   06     18.197  68.000   5.228  0.00  0.00    +0.029 A 
ATOM      9  C10 CHE B   06     16.166  67.229   5.944  0.00  0.00    +0.112 A 
ATOM     10  N3  CHE B   06     15.148  66.829   6.334  0.00  0.00    -0.255 NA
ATOM     11  C11 CHE B   06     18.115  67.521   6.292  0.00  0.00    +0.072 A 
ATOM     12  C12 CHE B   06     20.021  67.567   7.186  0.00  0.00    +0.028 A 
ATOM     13  C13 CHE B   06     16.152  67.147   6.126  0.00  0.00    +0.002 A 
ATOM     14  C14 CHE B   06     18.183  67.918   5.410  0.00  0.00    +0.001 A 
ATOM     15  C15 CHE B   06     20.181  68.501   5.112  0.00  0.00    +0.010 A 
ATOM     16  C16 CHE B   06     20.146  68.292   5.576  0.00  0.00    +0.008 A 
ENDBRANCH   5   7
BRANCH   1  20
ATOM     17  C1  CHE B   06     23.488  70.174   1.787  0.00  0.00    +0.000 A 
ATOM     18  C2  CHE B   06     20.524  69.508   1.785  0.00  0.00    +0.001 A 
ATOM     19  C3  CHE B   06     24.360  70.097   2.871  0.00  0.00    +0.010 A 
ATOM     20  C4  CHE B   06     22.417  69.740   2.553  0.00  0.00    +0.003 A 
ATOM     21  C17 CHE B   06     22.468  69.870   2.084  0.00  0.00    +0.010 A 
ATOM     22  C18 CHE B   06     21.546  69.817   1.469  0.00  0.00    +0.001 A 
ENDBRANCH   1  20
TORSDOF 2
ENDMDL
MODEL 3
REMARK VINA RESULT:     -10.0      2.812      7.260
REMARK  Name = dock_mp/CHEMBL1/CHEMBL126676.pdb
REMARK  2 active torsions:
REMARK  status: ('A' for Active; 'I' for Inactive)
REMARK    1  A    between atoms: C4_4  and  C5_5
REMARK    2  A    between atoms: C7_9  and  C8_10
REMARK                            x       y       z     vdW  Elec       q    Type
REMARK                         _______ _______ _______ _____ _____    ______ ____
ROOT
ATOM      1  C5  CHE B   06     20.692  70.064   7.049  0.00  0.00    +0.100 A 
ATOM      2  N1  CHE B   06     20.462  70.262   5.818  0.00  0.00    -0.173 NA
ATOM      3  N2  CHE B   06     20.709  70.079   7.030  0.00  0.00    -0.284 N 
ATOM      4  C6  CHE B   06     21.335  69.837   9.296  0.00  0.00    +0.114 A 
ATOM      5  C7  CHE B   06     15.346  68.013   2.831  0.00  0.00    +0.028 A 
ATOM      6  H4  CHE B   06     18.260  69.465   3.905  0.00  0.00    +0.188 HD
ENDROOT
BRANCH   5   7
ATOM      7  C8  CHE B   06     20.004  69.022   9.362  0.00  0.00    -0.004 A 
ATOM      8  C9  CHE B   06     18.339  68.381   8.299  0.00  0.00    +0.029 A 
ATOM      9  C10 CHE B   06     19.023  68.261  10.478  0.00  0.00    +0.112 A 
ATOM     10  N3  CHE B   06     19.345  68.185  11.591  0.00  0.00    -0.255 NA
ATOM     11  C11 CHE B   06     17.652  67.848   9.081  0.00  0.00    +0.072 A 
ATOM     12  C12 CHE B   06     15.928  67.161   8.086  0.00  0.00    +0.028 A 
ATOM     13  C13 CHE B   06     18.906  68.170  10.612  0.00  0.00    +0.002 A 
ATOM     14  C14 CHE B   06     18.221  68.290   8.433  0.00  0.00    +0.001 A 
ATOM     15  C15 CHE B   06     17.267  68.201   6.561  0.00  0.00    +0.010 A 
ATOM     16  C16 CHE B   06     16.967  67.968   6.902  0.00  0.00    +0.008 A 
ENDBRANCH   5   7
BRANCH   1  20
ATOM     17  C1  CHE B   06     17.664  69.045   1.771  0.00  0.00    +0.000 A 
ATOM     18  C2  CHE B   06     19.354  69.525   4.249  0.00  0.00    +0.001 A 
ATOM     19  C3  CHE B   06     16.272  69.026   1.701  0.00  0.00    +0.010 A 
ATOM     20  C4  CHE B   06     17.641  69.305   3.132  0.00  0.00    +0.003 A 
ATOM     21  C17 CHE B   06     18.000  69.244   2.804  0.00  0.00    +0.010 A 
ATOM     22  C18 CHE B   06     19.032  69.324   3.202  0.00  0.00    +0.001 A 
ENDBRANCH   1  20
TORSDOF 2
ENDMDL
MODEL 4
REMARK VINA RESULT:     -10.0      2.173      4.194
REMARK  Name = dock_mp/CHEMBL1/CHEMBL126676.pdb
REMARK  2 active torsions:
REMARK  status: ('A' for Active; 'I' for Inactive)
REMARK    1  A    between atoms: C4_4  and  C5_5
REMARK    2  A    between atoms: C7_9  and  C8_10
REMARK                            x       y       z     vdW  Elec       q    Type
REMARK                         _______ _______ _______ _____ _____    ______ ____
ROOT
ATOM      1  C5  CHE B   06     19.459  69.508   4.343  0.00  0.00    +0.100 A 
ATOM      2  N1  CHE B   06     20.296  69.804   5.249  0.00  0.00    -0.173 NA
ATOM      3  N2  CHE B   06     19.486  69.521   4.340  0.00  0.00    -0.284 N 
ATOM      4  C6  CHE B   06     18.078  69.066   2.496  0.00  0.00    +0.114 A 
ATOM      5  C7  CHE B   06     19.380  68.507  11.384  0.00  0.00    +0.028 A 
ATOM      6  H4  CHE B   06     20.403  69.448   8.250  0.00  0.00    +0.188 HD
ENDROOT
BRANCH   5   7
ATOM      7  C8  CHE B   06     17.166  68.457   3.608  0.00  0.00    -0.004 A 
ATOM      8  C9  CHE B   06     16.942  68.132   5.647  0.00  0.00    +0.029 A 
ATOM      9  C10 CHE B   06     15.644  67.795   3.794  0.00  0.00    +0.112 A 
ATOM     10  N3  CHE B   06     14.962  67.613   2.872  0.00  0.00    -0.255 NA
ATOM     11  C11 CHE B   06     15.876  67.668   5.778  0.00  0.00    +0.072 A 
ATOM     12  C12 CHE B   06     15.561  67.304   7.828  0.00  0.00    +0.028 A 
ATOM     13  C13 CHE B   06     15.461  67.716   3.817  0.00  0.00    +0.002 A 
ATOM     14  C14 CHE B   06     16.760  68.052   5.670  0.00  0.00    +0.001 A 
ATOM     15  C15 CHE B   06     17.639  68.207   7.574  0.00  0.00    +0.010 A 
ATOM     16  C16 CHE B   06     17.174  68.005   7.631  0.00  0.00    +0.008 A 
ENDBRANCH   5   7
BRANCH   1  20
ATOM     17  C1  CHE B   06     21.500  69.977  10.147  0.00  0.00    +0.000 A 
ATOM     18  C2  CHE B   06     20.659  69.901   7.229  0.00  0.00    +0.001 A 
ATOM     19  C3  CHE B   06     20.935  69.257  11.197  0.00  0.00    +0.010 A 
ATOM     20  C4  CHE B   06     20.621  69.424   9.229  0.00  0.00    +0.003 A 
ATOM     21  C17 CHE B   06     20.988  69.747   9.195  0.00  0.00    +0.010 A 
ATOM     22  C18 CHE B   06     21.186  70.144   8.179  0.00  0.00    +0.001 A 
ENDBRANCH   1  20
TORSDOF 2
ENDMDL
MODEL 5
REMARK VINA RESULT:     -10.0      1.751      6.256
REMARK  Name = dock_mp/CHEMBL1/CHEMBL126676.pdb
REMARK  2 active torsions:
REMARK  status: ('A' for Active; 'I' for Inactive)
REMARK    1  A    between atoms: C4_4  and  C5_5
REMARK    2  A    between atoms: C7_9  and  C8_10
REMARK                            x       y       z     vdW  Elec       q    Type
REMARK                         _______ _______ _______ _____ _____    ______ ____
ROOT
ATOM      1  C5  CHE B   06     15.619  66.276   7.767  0.00  0.00    +0.100 A 
ATOM      2  N1  CHE B   06     15.376  66.326   6.523  0.00  0.00    -0.173 NA
ATOM      3  N2  CHE B   06     15.597  66.262   7.752  0.00  0.00    -0.284 N 
ATOM      4  C6  CHE B   06     15.866  66.023  10.088  0.00  0.00    +0.114 A 
ATOM      5  C7  CHE B   06     18.813  69.747   2.443  0.00  0.00    +0.028 A 
ATOM      6  H4  CHE B   06     16.628  67.740   4.161  0.00  0.00    +0.188 HD
ENDROOT
BRANCH   5   7
ATOM      7  C8  CHE B   06     17.065  66.992   9.841  0.00  0.00    -0.004 A 
ATOM      8  C9  CHE B   06     18.109  68.095   8.424  0.00  0.00    +0.029 A 
ATOM      9  C10 CHE B   06     18.255  67.803  10.688  0.00  0.00    +0.112 A 
ATOM     10  N3  CHE B   06     18.352  67.674  11.837  0.00  0.00    -0.255 NA
ATOM     11  C11 CHE B   06     18.942  68.663   9.017  0.00  0.00    +0.072 A 
ATOM     12  C12 CHE B   06     20.058  69.814   7.651  0.00  0.00    +0.028 A 
ATOM     13  C13 CHE B   06     18.397  67.900  10.789  0.00  0.00    +0.002 A 
ATOM     14  C14 CHE B   06     18.252  68.192   8.525  0.00  0.00    +0.001 A 
ATOM     15  C15 CHE B   06     18.434  68.707   6.494  0.00  0.00    +0.010 A 
ATOM     16  C16 CHE B   06     18.797  68.955   6.753  0.00  0.00    +0.008 A 
ENDBRANCH   5   7
BRANCH   1  20
ATOM     17  C1  CHE B   06     16.338  68.601   2.096  0.00  0.00    +0.000 A 
ATOM     18  C2  CHE B   06     15.754  67.471   4.855  0.00  0.00    +0.001 A 
ATOM     19  C3  CHE B   06     17.594  68.823   1.535  0.00  0.00    +0.010 A 
ATOM     20  C4  CHE B   06     16.894  68.115   3.270  0.00  0.00    +0.003 A 
ATOM     21  C17 CHE B   06     16.434  68.182   3.114  0.00  0.00    +0.010 A 
ATOM     22  C18 CHE B   06     15.639  67.893   3.831  0.00  0.00    +0.001 A 
ENDBRANCH   1  20
TORSDOF 2
ENDMDL
MODEL 6
REMARK VINA RESULT:      -9.9      2.609      6.454
REMARK  Name = dock_mp/CHEMBL1/CHEMBL126676.pdb
REMARK  2 active torsions:
REMARK  status: ('A' for Active; 'I' for Inactive)
REMARK    1  A    between atoms: C4_4  and  C5_5
REMARK    2  A    between atoms: C7_9  and  C8_10
REMARK                            x       y       z     vdW  Elec       q    Type
REMARK                         _______ _______ _______ _____ _____    ______ ____
ROOT
ATOM      1  C5  CHE B   06     18.898  68.612   8.732  0.00  0.00    +0.100 A 
ATOM      2  N1  CHE B   06     20.009  68.944   8.219  0.00  0.00    -0.173 NA
ATOM      3  N2  CHE B   06     18.924  68.618   8.747  0.00  0.00    -0.284 N 
ATOM      4  C6  CHE B   06     16.959  68.017   9.915  0.00  0.00    +0.114 A 
ATOM      5  C7  CHE B   06     20.922  69.507   1.973  0.00  0.00    +0.028 A 
ATOM      6  H4  CHE B   06     21.013  69.362   5.397  0.00  0.00    +0.188 HD
ENDROOT
BRANCH   5   7
ATOM      7  C8  CHE B   06     16.375  67.928   8.469  0.00  0.00    -0.004 A 
ATOM      8  C9  CHE B   06     16.824  68.017   6.443  0.00  0.00    +0.029 A 
ATOM      9  C10 CHE B   06     15.028  67.329   7.682  0.00  0.00    +0.112 A 
ATOM     10  N3  CHE B   06     14.102  66.973   8.285  0.00  0.00    -0.255 NA
ATOM     11  C11 CHE B   06     15.881  67.598   5.892  0.00  0.00    +0.072 A 
ATOM     12  C12 CHE B   06     16.250  67.652   3.819  0.00  0.00    +0.028 A 
ATOM     13  C13 CHE B   06     14.867  67.258   7.588  0.00  0.00    +0.002 A 
ATOM     14  C14 CHE B   06     16.663  67.945   6.349  0.00  0.00    +0.001 A 
ATOM     15  C15 CHE B   06     18.088  68.468   4.893  0.00  0.00    +0.010 A 
ATOM     16  C16 CHE B   06     17.677  68.286   4.653  0.00  0.00    +0.008 A 
ENDBRANCH   5   7
BRANCH   1  20
ATOM     17  C1  CHE B   06     22.629  70.248   4.099  0.00  0.00    +0.000 A 
ATOM     18  C2  CHE B   06     20.924  69.573   6.521  0.00  0.00    +0.001 A 
ATOM     19  C3  CHE B   06     22.440  69.798   2.794  0.00  0.00    +0.010 A 
ATOM     20  C4  CHE B   06     21.525  69.545   4.554  0.00  0.00    +0.003 A 
ATOM     21  C17 CHE B   06     21.853  69.838   4.770  0.00  0.00    +0.010 A 
ATOM     22  C18 CHE B   06     21.714  69.996   5.859  0.00  0.00    +0.001 A 
ENDBRANCH   1  20
TORSDOF 2
ENDMDL
MODEL 7
REMARK VINA RESULT:      -9.8      2.296      3.806
REMARK  Name = dock_mp/CHEMBL1/CHEMBL126676.pdb
REMARK  2 active torsions:
REMARK  status: ('A' for Active; 'I' for Inactive)
REMARK    1  A    between atoms: C4_4  and  C5_5
REMARK    2  A    between atoms: C7_9  and  C8_10
REMARK                            x       y       z     vdW  Elec       q    Type
REMARK                         _______ _______ _______ _____ _____    ______ ____
ROOT
ATOM      1  C5  CHE B   06     20.396  69.282   5.092  0.00  0.00    +0.100 A 
ATOM      2  N1  CHE B   06     20.578  69.156   6.341  0.00  0.00    -0.173 NA
ATOM      3  N2  CHE B   06     20.421  69.288   5.108  0.00  0.00    -0.284 N 
ATOM      4  C6  CHE B   06     20.304  69.602   2.768  0.00  0.00    +0.114 A 
ATOM      5  C7  CHE B   06     16.119  67.024  10.307  0.00  0.00    +0.028 A 
ATOM      6  H4  CHE B   06     18.877  68.221   8.660  0.00  0.00    +0.188 HD
ENDROOT
BRANCH   5   7
ATOM      7  C8  CHE B   06     18.850  69.071   2.978  0.00  0.00    -0.004 A 
ATOM      8  C9  CHE B   06     17.469  68.368   4.360  0.00  0.00    +0.029 A 
ATOM      9  C10 CHE B   06     17.482  68.696   2.097  0.00  0.00    +0.112 A 
ATOM     10  N3  CHE B   06     17.460  68.852   0.946  0.00  0.00    -0.255 NA
ATOM     11  C11 CHE B   06     16.510  68.105   3.743  0.00  0.00    +0.072 A 
ATOM     12  C12 CHE B   06     15.047  67.380   5.073  0.00  0.00    +0.028 A 
ATOM     13  C13 CHE B   06     17.318  68.651   1.991  0.00  0.00    +0.002 A 
ATOM     14  C14 CHE B   06     17.305  68.323   4.255  0.00  0.00    +0.001 A 
ATOM     15  C15 CHE B   06     16.915  67.891   6.276  0.00  0.00    +0.010 A 
ATOM     16  C16 CHE B   06     16.497  67.777   6.007  0.00  0.00    +0.008 A 
ENDBRANCH   5   7
BRANCH   1  20
ATOM     17  C1  CHE B   06     18.690  68.102  10.903  0.00  0.00    +0.000 A 
ATOM     18  C2  CHE B   06     19.707  68.808   8.129  0.00  0.00    +0.001 A 
ATOM     19  C3  CHE B   06     17.577  67.322  11.210  0.00  0.00    +0.010 A 
ATOM     20  C4  CHE B   06     18.481  67.952   9.541  0.00  0.00    +0.003 A 
ATOM     21  C17 CHE B   06     18.817  68.188   9.809  0.00  0.00    +0.010 A 
ATOM     22  C18 CHE B   06     19.594  68.732   9.234  0.00  0.00    +0.001 A 
ENDBRANCH   1  20
TORSDOF 2
ENDMDL
MODEL 8
REMARK VINA RESULT:      -9.7      1.868      4.748
REMARK  Name = dock_mp/CHEMBL1/CHEMBL126676.pdb
REMARK  2 active torsions:
REMARK  status: ('A' for Active; 'I' for Inactive)
REMARK    1  A    between atoms: C4_4  and  C5_5
REMARK    2  A    between atoms: C7_9  and  C8_10
REMARK                            x       y       z     vdW  Elec       q    Type
REMARK                         _______ _______ _______ _____ _____    ______ ____
ROOT
ATOM      1  C5  CHE B   06     17.323  68.458   4.116  0.00  0.00    +0.100 A 
ATOM      2  N1  CHE B   06     18.387  69.112   4.333  0.00  0.00    -0.173 NA
ATOM      3  N2  CHE B   06     17.339  68.474   4.096  0.00  0.00    -0.284 N 
ATOM      4  C6  CHE B   06     15.369  67.329   3.467  0.00  0.00    +0.114 A 
ATOM      5  C7  CHE B   06     21.233  69.340   9.991  0.00  0.00    +0.028 A 
ATOM      6  H4  CHE B   06     20.147  69.579   6.748  0.00  0.00    +0.188 HD
ENDROOT
BRANCH   5   7
ATOM      7  C8  CHE B   06     15.390  66.894   4.967  0.00  0.00    -0.004 A 
ATOM      8  C9  CHE B   06     16.445  66.977   6.754  0.00  0.00    +0.029 A 
ATOM      9  C10 CHE B   06     14.595  65.858   6.008  0.00  0.00    +0.112 A 
ATOM     10  N3  CHE B   06     13.653  65.277   5.656  0.00  0.00    -0.255 NA
ATOM     11  C11 CHE B   06     15.887  66.251   7.483  0.00  0.00    +0.072 A 
ATOM     12  C12 CHE B   06     16.894  66.272   9.333  0.00  0.00    +0.028 A 
ATOM     13  C13 CHE B   06     14.499  65.734   6.132  0.00  0.00    +0.002 A 
ATOM     14  C14 CHE B   06     16.350  66.853   6.879  0.00  0.00    +0.001 A 
ATOM     15  C15 CHE B   06     17.981  67.686   7.912  0.00  0.00    +0.010 A 
ATOM     16  C16 CHE B   06     17.738  67.370   8.230  0.00  0.00    +0.008 A 
ENDBRANCH   5   7
BRANCH   1  20
ATOM     17  C1  CHE B   06     22.132  70.352   7.485  0.00  0.00    +0.000 A 
ATOM     18  C2  CHE B   06     19.890  69.467   5.636  0.00  0.00    +0.001 A 
ATOM     19  C3  CHE B   06     22.113  70.352   8.878  0.00  0.00    +0.010 A 
ATOM     20  C4  CHE B   06     20.843  69.848   7.418  0.00  0.00    +0.003 A 
ATOM     21  C17 CHE B   06     21.175  69.976   7.082  0.00  0.00    +0.010 A 
ATOM     22  C18 CHE B   06     20.861  69.849   6.025  0.00  0.00    +0.001 A 
ENDBRANCH   1  20
TORSDOF 2
ENDMDL
