MODEL 1
REMARK VINA RESULT:     -10.5      0.000      0.000
REMARK  Name = dock_mp/CHEMBL1/CHEMBL185238.pdb
REMARK  3 active torsions:
REMARK  status: ('A' for Active; 'I' for Inactive)
REMARK    1  A    between atoms: C1_1  and  C2_2
REMARK    2  A    between atoms: C6_6  and  C7_7
REMARK    3  A    between atoms: C9_11  and  C10_12
REMARK                            x       y       z     vdW  Elec       q    Type
REMARK                         _______ _______ _______ _____ _____    ______ ____
ROOT
ATOM      1  C7  CHE B   02     17.280  67.618   6.516  0.00  0.00    +0.120 A 
ATOM      2  N1  CHE B   02     17.705  66.266   9.175  0.00  0.00    -0.172 NA
ATOM      3  N2  CHE B   02     17.618  68.524   4.578  0.00  0.00    -0.283 N 
ATOM      4  C8  CHE B   02     19.338  67.179   6.892  0.00  0.00    +0.115 A 
ATOM      5  C9  CHE B   02     17.675  69.428   2.715  0.00  0.00    +0.047 A 
ATOM      6  H7  CHE B   02     17.260  69.425   2.826  0.00  0.00    +0.188 HD
ENDROOT
BRANCH   5   7
ATOM      7  C10 CHE B   02     18.439  69.432   2.512  0.00  0.00    +0.075 A 
ATOM      8  C11 CHE B   02     18.313  69.431   2.545  0.00  0.00    +0.030 A 
ATOM      9  C12 CHE B   02     19.539  69.851   4.244  0.00  0.00    +0.032 A 
ATOM     10  C13 CHE B   02     19.898  69.441   2.124  0.00  0.00    +0.089 A 
ATOM     11  N3  CHE B   02     22.606  71.107   9.501  0.00  0.00    -0.253 NA
ATOM     12  C14 CHE B   02     21.974  69.866   3.596  0.00  0.00    +0.111 A 
ATOM     13  C15 CHE B   02     21.638  69.451   1.661  0.00  0.00    +0.022 A 
ATOM     14  C16 CHE B   02     22.155  70.486   6.584  0.00  0.00    +0.031 A 
ATOM     15  C17 CHE B   02     20.024  69.442   2.090  0.00  0.00    +0.090 A 
ATOM     16  N4  CHE B   02     20.551  70.476   7.011  0.00  0.00    -0.245 NA
ENDBRANCH   5   7
BRANCH   1  22
ATOM     17  C1  CHE B   02     15.318  68.328   7.753  0.00  0.00    +0.065 C 
ATOM     18  C2  CHE B   02     14.421  63.993   3.701  0.00  0.00    +0.039 A 
ATOM     19  C3  CHE B   02     13.667  63.989   3.901  0.00  0.00    +0.023 A 
ATOM     20  C4  CHE B   02     13.995  64.712   4.529  0.00  0.00    +0.004 A 
ATOM     21  C5  CHE B   02     14.904  64.718   4.287  0.00  0.00    +0.030 A 
ATOM     22  C6  CHE B   02     16.333  67.613   6.768  0.00  0.00    +0.092 A 
ATOM     23  N5  CHE B   02     15.618  65.444   4.812  0.00  0.00    -0.250 NA
ENDBRANCH   1  22
TORSDOF 2
ENDMDL
MODEL 2
REMARK VINA RESULT:     -10.3      4.193      9.436
REMARK  Name = dock_mp/CHEMBL1/CHEMBL185238.pdb
REMARK  3 active torsions:
REMARK  status: ('A' for Active; 'I' for Inactive)
REMARK    1  A    between atoms: C1_1  and  C2_2
REMARK    2  A    between atoms: C6_6  and  C7_7
REMARK    3  A    between atoms: C9_11  and  C10_12
REMARK                            x       y       z     vdW  Elec       q    Type
REMARK                         _______ _______ _______ _____ _____    ______ ____
ROOT
ATOM      1  C7  CHE B   02     24.722  69.593   2.434  0.00  0.00    +0.120 A 
ATOM      2  N1  CHE B   02     26.892  69.576   0.344  0.00  0.00    -0.172 NA
ATOM      3  N2  CHE B   02     22.790  69.529   3.411  0.00  0.00    -0.283 N 
ATOM      4  C8  CHE B   02     23.951  69.359   0.454  0.00  0.00    +0.115 A 
ATOM      5  C9  CHE B   02     21.077  69.500   4.576  0.00  0.00    +0.047 A 
ATOM      6  H7  CHE B   02     21.401  69.549   4.855  0.00  0.00    +0.188 HD
ENDROOT
BRANCH   5   7
ATOM      7  C10 CHE B   02     20.482  69.409   4.065  0.00  0.00    +0.075 A 
ATOM      8  C11 CHE B   02     20.580  69.424   4.149  0.00  0.00    +0.030 A 
ATOM      9  C12 CHE B   02     18.828  68.727   5.153  0.00  0.00    +0.032 A 
ATOM     10  C13 CHE B   02     19.344  69.235   3.087  0.00  0.00    +0.089 A 
ATOM     11  N3  CHE B   02     14.047  66.711   8.574  0.00  0.00    -0.253 NA
ATOM     12  C14 CHE B   02     16.930  68.437   3.522  0.00  0.00    +0.111 A 
ATOM     13  C15 CHE B   02     17.988  69.028   1.922  0.00  0.00    +0.022 A 
ATOM     14  C16 CHE B   02     15.594  67.590   6.139  0.00  0.00    +0.031 A 
ATOM     15  C17 CHE B   02     19.246  69.220   3.003  0.00  0.00    +0.090 A 
ATOM     16  N4  CHE B   02     16.845  67.781   7.213  0.00  0.00    -0.245 NA
ENDBRANCH   5   7
BRANCH   1  22
ATOM     17  C1  CHE B   02     26.445  68.855   3.973  0.00  0.00    +0.065 C 
ATOM     18  C2  CHE B   02     25.981  74.792   3.226  0.00  0.00    +0.039 A 
ATOM     19  C3  CHE B   02     26.568  74.882   3.731  0.00  0.00    +0.023 A 
ATOM     20  C4  CHE B   02     26.506  73.871   3.736  0.00  0.00    +0.004 A 
ATOM     21  C5  CHE B   02     25.798  73.763   3.127  0.00  0.00    +0.030 A 
ATOM     22  C6  CHE B   02     25.460  69.705   3.069  0.00  0.00    +0.092 A 
ATOM     23  N5  CHE B   02     25.435  72.706   2.873  0.00  0.00    -0.250 NA
ENDBRANCH   1  22
TORSDOF 2
ENDMDL
MODEL 3
REMARK VINA RESULT:      -9.4      3.420      5.893
REMARK  Name = dock_mp/CHEMBL1/CHEMBL185238.pdb
REMARK  3 active torsions:
REMARK  status: ('A' for Active; 'I' for Inactive)
REMARK    1  A    between atoms: C1_1  and  C2_2
REMARK    2  A    between atoms: C6_6  and  C7_7
REMARK    3  A    between atoms: C9_11  and  C10_12
REMARK                            x       y       z     vdW  Elec       q    Type
REMARK                         _______ _______ _______ _____ _____    ______ ____
ROOT
ATOM      1  C7  CHE B   02     16.831  67.635   7.428  0.00  0.00    +0.120 A 
ATOM      2  N1  CHE B   02     13.883  67.498   8.040  0.00  0.00    -0.172 NA
ATOM      3  N2  CHE B   02     18.934  68.146   7.487  0.00  0.00    -0.283 N 
ATOM      4  C8  CHE B   02     16.275  68.884   9.072  0.00  0.00    +0.115 A 
ATOM      5  C9  CHE B   02     20.975  68.469   7.336  0.00  0.00    +0.047 A 
ATOM      6  H7  CHE B   02     20.882  68.188   7.023  0.00  0.00    +0.188 HD
ENDROOT
BRANCH   5   7
ATOM      7  C10 CHE B   02     21.145  68.985   7.909  0.00  0.00    +0.075 A 
ATOM      8  C11 CHE B   02     21.117  68.900   7.815  0.00  0.00    +0.030 A 
ATOM      9  C12 CHE B   02     22.296  67.970   9.334  0.00  0.00    +0.032 A 
ATOM     10  C13 CHE B   02     21.470  69.971   9.006  0.00  0.00    +0.089 A 
ATOM     11  N3  CHE B   02     25.699  64.770  13.433  0.00  0.00    -0.253 NA
ATOM     12  C14 CHE B   02     22.839  69.616  11.164  0.00  0.00    +0.111 A 
ATOM     13  C15 CHE B   02     21.857  71.146  10.313  0.00  0.00    +0.022 A 
ATOM     14  C16 CHE B   02     24.239  67.102  12.197  0.00  0.00    +0.031 A 
ATOM     15  C17 CHE B   02     21.498  70.055   9.100  0.00  0.00    +0.090 A 
ATOM     16  N4  CHE B   02     23.881  66.018  10.992  0.00  0.00    -0.245 NA
ENDBRANCH   5   7
BRANCH   1  22
ATOM     17  C1  CHE B   02     15.984  65.558   6.503  0.00  0.00    +0.065 C 
ATOM     18  C2  CHE B   02     18.238  69.457   2.535  0.00  0.00    +0.039 A 
ATOM     19  C3  CHE B   02     18.070  68.947   1.968  0.00  0.00    +0.023 A 
ATOM     20  C4  CHE B   02     17.734  68.418   2.764  0.00  0.00    +0.004 A 
ATOM     21  C5  CHE B   02     17.937  69.032   3.446  0.00  0.00    +0.030 A 
ATOM     22  C6  CHE B   02     16.619  66.995   6.716  0.00  0.00    +0.092 A 
ATOM     23  N5  CHE B   02     17.687  68.765   4.533  0.00  0.00    -0.250 NA
ENDBRANCH   1  22
TORSDOF 2
ENDMDL
MODEL 4
REMARK VINA RESULT:      -9.3      2.888      5.527
REMARK  Name = dock_mp/CHEMBL1/CHEMBL185238.pdb
REMARK  3 active torsions:
REMARK  status: ('A' for Active; 'I' for Inactive)
REMARK    1  A    between atoms: C1_1  and  C2_2
REMARK    2  A    between atoms: C6_6  and  C7_7
REMARK    3  A    between atoms: C9_11  and  C10_12
REMARK                            x       y       z     vdW  Elec       q    Type
REMARK                         _______ _______ _______ _____ _____    ______ ____
ROOT
ATOM      1  C7  CHE B   02     16.762  67.464   7.415  0.00  0.00    +0.120 A 
ATOM      2  N1  CHE B   02     13.915  66.986   8.279  0.00  0.00    -0.172 NA
ATOM      3  N2  CHE B   02     18.818  68.140   7.351  0.00  0.00    -0.283 N 
ATOM      4  C8  CHE B   02     16.302  68.404   9.280  0.00  0.00    +0.115 A 
ATOM      5  C9  CHE B   02     20.803  68.655   7.056  0.00  0.00    +0.047 A 
ATOM      6  H7  CHE B   02     20.697  68.417   6.714  0.00  0.00    +0.188 HD
ENDROOT
BRANCH   5   7
ATOM      7  C10 CHE B   02     20.997  69.093   7.684  0.00  0.00    +0.075 A 
ATOM      8  C11 CHE B   02     20.965  69.021   7.580  0.00  0.00    +0.030 A 
ATOM      9  C12 CHE B   02     23.077  69.333   7.652  0.00  0.00    +0.032 A 
ATOM     10  C13 CHE B   02     21.369  69.931   8.884  0.00  0.00    +0.089 A 
ATOM     11  N3  CHE B   02     29.258  69.917   7.367  0.00  0.00    -0.253 NA
ATOM     12  C14 CHE B   02     23.698  70.730   9.656  0.00  0.00    +0.111 A 
ATOM     13  C15 CHE B   02     21.813  70.929  10.315  0.00  0.00    +0.022 A 
ATOM     14  C16 CHE B   02     26.444  70.246   8.400  0.00  0.00    +0.031 A 
ATOM     15  C17 CHE B   02     21.401  70.003   8.987  0.00  0.00    +0.090 A 
ATOM     16  N4  CHE B   02     26.035  69.325   7.080  0.00  0.00    -0.245 NA
ENDBRANCH   5   7
BRANCH   1  22
ATOM     17  C1  CHE B   02     15.771  65.576   6.259  0.00  0.00    +0.065 C 
ATOM     18  C2  CHE B   02     18.487  69.638   2.774  0.00  0.00    +0.039 A 
ATOM     19  C3  CHE B   02     18.295  69.205   2.154  0.00  0.00    +0.023 A 
ATOM     20  C4  CHE B   02     17.888  68.631   2.882  0.00  0.00    +0.004 A 
ATOM     21  C5  CHE B   02     18.119  69.152   3.629  0.00  0.00    +0.030 A 
ATOM     22  C6  CHE B   02     16.520  66.921   6.636  0.00  0.00    +0.092 A 
ATOM     23  N5  CHE B   02     17.811  68.799   4.675  0.00  0.00    -0.250 NA
ENDBRANCH   1  22
TORSDOF 2
ENDMDL
MODEL 5
REMARK VINA RESULT:      -9.2      3.047      4.303
REMARK  Name = dock_mp/CHEMBL1/CHEMBL185238.pdb
REMARK  3 active torsions:
REMARK  status: ('A' for Active; 'I' for Inactive)
REMARK    1  A    between atoms: C1_1  and  C2_2
REMARK    2  A    between atoms: C6_6  and  C7_7
REMARK    3  A    between atoms: C9_11  and  C10_12
REMARK                            x       y       z     vdW  Elec       q    Type
REMARK                         _______ _______ _______ _____ _____    ______ ____
ROOT
ATOM      1  C7  CHE B   02     17.155  68.010   8.359  0.00  0.00    +0.120 A 
ATOM      2  N1  CHE B   02     15.378  66.065   9.820  0.00  0.00    -0.172 NA
ATOM      3  N2  CHE B   02     18.891  69.075   7.622  0.00  0.00    -0.283 N 
ATOM      4  C8  CHE B   02     18.261  66.644   9.576  0.00  0.00    +0.115 A 
ATOM      5  C9  CHE B   02     20.379  70.244   6.779  0.00  0.00    +0.047 A 
ATOM      6  H7  CHE B   02     20.010  70.400   6.620  0.00  0.00    +0.188 HD
ENDROOT
BRANCH   5   7
ATOM      7  C10 CHE B   02     21.055  69.958   7.069  0.00  0.00    +0.075 A 
ATOM      8  C11 CHE B   02     20.944  70.005   7.022  0.00  0.00    +0.030 A 
ATOM      9  C12 CHE B   02     22.534  70.269   5.620  0.00  0.00    +0.032 A 
ATOM     10  C13 CHE B   02     22.348  69.411   7.625  0.00  0.00    +0.089 A 
ATOM     11  N3  CHE B   02     26.764  71.287   1.182  0.00  0.00    -0.253 NA
ATOM     12  C14 CHE B   02     24.692  69.356   6.547  0.00  0.00    +0.111 A 
ATOM     13  C15 CHE B   02     23.890  68.760   8.288  0.00  0.00    +0.022 A 
ATOM     14  C16 CHE B   02     25.608  70.372   3.813  0.00  0.00    +0.031 A 
ATOM     15  C17 CHE B   02     22.460  69.364   7.673  0.00  0.00    +0.090 A 
ATOM     16  N4  CHE B   02     24.186  70.973   3.202  0.00  0.00    -0.245 NA
ENDBRANCH   5   7
BRANCH   1  22
ATOM     17  C1  CHE B   02     15.403  69.660   8.055  0.00  0.00    +0.065 C 
ATOM     18  C2  CHE B   02     14.692  64.511   5.053  0.00  0.00    +0.039 A 
ATOM     19  C3  CHE B   02     14.024  64.794   4.766  0.00  0.00    +0.023 A 
ATOM     20  C4  CHE B   02     14.301  65.585   5.334  0.00  0.00    +0.004 A 
ATOM     21  C5  CHE B   02     15.106  65.245   5.680  0.00  0.00    +0.030 A 
ATOM     22  C6  CHE B   02     16.316  68.365   7.998  0.00  0.00    +0.092 A 
ATOM     23  N5  CHE B   02     15.725  65.891   6.396  0.00  0.00    -0.250 NA
ENDBRANCH   1  22
TORSDOF 2
ENDMDL
MODEL 6
REMARK VINA RESULT:      -9.0      3.992      6.632
REMARK  Name = dock_mp/CHEMBL1/CHEMBL185238.pdb
REMARK  3 active torsions:
REMARK  status: ('A' for Active; 'I' for Inactive)
REMARK    1  A    between atoms: C1_1  and  C2_2
REMARK    2  A    between atoms: C6_6  and  C7_7
REMARK    3  A    between atoms: C9_11  and  C10_12
REMARK                            x       y       z     vdW  Elec       q    Type
REMARK                         _______ _______ _______ _____ _____    ______ ____
ROOT
ATOM      1  C7  CHE B   02     17.645  68.089   8.343  0.00  0.00    +0.120 A 
ATOM      2  N1  CHE B   02     15.597  65.951   7.788  0.00  0.00    -0.172 NA
ATOM      3  N2  CHE B   02     19.440  69.118   8.984  0.00  0.00    -0.283 N 
ATOM      4  C8  CHE B   02     18.284  66.154   8.991  0.00  0.00    +0.115 A 
ATOM      5  C9  CHE B   02     21.041  70.326   9.502  0.00  0.00    +0.047 A 
ATOM      6  H7  CHE B   02     20.754  70.591   9.322  0.00  0.00    +0.188 HD
ENDROOT
BRANCH   5   7
ATOM      7  C10 CHE B   02     21.567  69.839   9.834  0.00  0.00    +0.075 A 
ATOM      8  C11 CHE B   02     21.481  69.919   9.779  0.00  0.00    +0.030 A 
ATOM      9  C12 CHE B   02     20.680  69.049  11.559  0.00  0.00    +0.032 A 
ATOM     10  C13 CHE B   02     22.573  68.908  10.468  0.00  0.00    +0.089 A 
ATOM     11  N3  CHE B   02     17.860  66.828  16.632  0.00  0.00    -0.253 NA
ATOM     12  C14 CHE B   02     22.359  67.496  12.617  0.00  0.00    +0.111 A 
ATOM     13  C15 CHE B   02     23.772  67.798  11.224  0.00  0.00    +0.022 A 
ATOM     14  C16 CHE B   02     20.016  67.248  14.565  0.00  0.00    +0.031 A 
ATOM     15  C17 CHE B   02     22.660  68.828  10.523  0.00  0.00    +0.090 A 
ATOM     16  N4  CHE B   02     18.910  68.271  13.869  0.00  0.00    -0.245 NA
ENDBRANCH   5   7
BRANCH   1  22
ATOM     17  C1  CHE B   02     15.870  69.742   8.323  0.00  0.00    +0.065 C 
ATOM     18  C2  CHE B   02     17.786  67.903   2.941  0.00  0.00    +0.039 A 
ATOM     19  C3  CHE B   02     17.266  68.384   2.613  0.00  0.00    +0.023 A 
ATOM     20  C4  CHE B   02     17.070  68.576   3.588  0.00  0.00    +0.004 A 
ATOM     21  C5  CHE B   02     17.696  67.997   3.982  0.00  0.00    +0.030 A 
ATOM     22  C6  CHE B   02     16.992  68.693   7.932  0.00  0.00    +0.092 A 
ATOM     23  N5  CHE B   02     17.767  67.943   5.125  0.00  0.00    -0.250 NA
ENDBRANCH   1  22
TORSDOF 2
ENDMDL
MODEL 7
REMARK VINA RESULT:      -8.9      3.209      5.584
REMARK  Name = dock_mp/CHEMBL1/CHEMBL185238.pdb
REMARK  3 active torsions:
REMARK  status: ('A' for Active; 'I' for Inactive)
REMARK    1  A    between atoms: C1_1  and  C2_2
REMARK    2  A    between atoms: C6_6  and  C7_7
REMARK    3  A    between atoms: C9_11  and  C10_12
REMARK                            x       y       z     vdW  Elec       q    Type
REMARK                         _______ _______ _______ _____ _____    ______ ____
ROOT
ATOM      1  C7  CHE B   02     17.579  68.121   8.222  0.00  0.00    +0.120 A 
ATOM      2  N1  CHE B   02     15.392  66.061   8.442  0.00  0.00    -0.172 NA
ATOM      3  N2  CHE B   02     19.492  69.129   8.348  0.00  0.00    -0.283 N 
ATOM      4  C8  CHE B   02     18.250  66.307   9.134  0.00  0.00    +0.115 A 
ATOM      5  C9  CHE B   02     21.200  70.301   8.351  0.00  0.00    +0.047 A 
ATOM      6  H7  CHE B   02     20.896  70.546   8.169  0.00  0.00    +0.188 HD
ENDROOT
BRANCH   5   7
ATOM      7  C10 CHE B   02     21.757  69.852   8.685  0.00  0.00    +0.075 A 
ATOM      8  C11 CHE B   02     21.665  69.926   8.630  0.00  0.00    +0.030 A 
ATOM      9  C12 CHE B   02     23.281  69.602   7.270  0.00  0.00    +0.032 A 
ATOM     10  C13 CHE B   02     22.823  68.994   9.323  0.00  0.00    +0.089 A 
ATOM     11  N3  CHE B   02     27.683  68.988   2.926  0.00  0.00    -0.253 NA
ATOM     12  C14 CHE B   02     25.060  68.169   8.336  0.00  0.00    +0.111 A 
ATOM     13  C15 CHE B   02     24.093  67.970  10.084  0.00  0.00    +0.022 A 
ATOM     14  C16 CHE B   02     26.272  68.658   5.572  0.00  0.00    +0.031 A 
ATOM     15  C17 CHE B   02     22.915  68.920   9.378  0.00  0.00    +0.090 A 
ATOM     16  N4  CHE B   02     25.101  69.602   4.870  0.00  0.00    -0.245 NA
ENDBRANCH   5   7
BRANCH   1  22
ATOM     17  C1  CHE B   02     15.669  69.615   8.194  0.00  0.00    +0.065 C 
ATOM     18  C2  CHE B   02     17.878  68.101   2.823  0.00  0.00    +0.039 A 
ATOM     19  C3  CHE B   02     17.328  68.544   2.493  0.00  0.00    +0.023 A 
ATOM     20  C4  CHE B   02     17.090  68.692   3.466  0.00  0.00    +0.004 A 
ATOM     21  C5  CHE B   02     17.753  68.157   3.864  0.00  0.00    +0.030 A 
ATOM     22  C6  CHE B   02     16.888  68.678   7.808  0.00  0.00    +0.092 A 
ATOM     23  N5  CHE B   02     17.798  68.077   5.006  0.00  0.00    -0.250 NA
ENDBRANCH   1  22
TORSDOF 2
ENDMDL
MODEL 8
REMARK VINA RESULT:      -8.9      5.127      8.187
REMARK  Name = dock_mp/CHEMBL1/CHEMBL185238.pdb
REMARK  3 active torsions:
REMARK  status: ('A' for Active; 'I' for Inactive)
REMARK    1  A    between atoms: C1_1  and  C2_2
REMARK    2  A    between atoms: C6_6  and  C7_7
REMARK    3  A    between atoms: C9_11  and  C10_12
REMARK                            x       y       z     vdW  Elec       q    Type
REMARK                         _______ _______ _______ _____ _____    ______ ____
ROOT
ATOM      1  C7  CHE B   02     16.312  67.640   9.234  0.00  0.00    +0.120 A 
ATOM      2  N1  CHE B   02     14.732  66.001   7.260  0.00  0.00    -0.172 NA
ATOM      3  N2  CHE B   02     17.473  68.247  10.958  0.00  0.00    -0.283 N 
ATOM      4  C8  CHE B   02     16.116  65.597   9.835  0.00  0.00    +0.115 A 
ATOM      5  C9  CHE B   02     18.585  69.073  12.498  0.00  0.00    +0.047 A 
ATOM      6  H7  CHE B   02     18.514  69.397  12.225  0.00  0.00    +0.188 HD
ENDROOT
BRANCH   5   7
ATOM      7  C10 CHE B   02     18.717  68.477  13.000  0.00  0.00    +0.075 A 
ATOM      8  C11 CHE B   02     18.695  68.575  12.918  0.00  0.00    +0.030 A 
ATOM      9  C12 CHE B   02     20.792  68.245  13.158  0.00  0.00    +0.032 A 
ATOM     10  C13 CHE B   02     18.968  67.337  13.959  0.00  0.00    +0.089 A 
ATOM     11  N3  CHE B   02     26.977  67.733  13.479  0.00  0.00    -0.253 NA
ATOM     12  C14 CHE B   02     21.211  66.344  14.758  0.00  0.00    +0.111 A 
ATOM     13  C15 CHE B   02     19.268  65.979  15.102  0.00  0.00    +0.022 A 
ATOM     14  C16 CHE B   02     24.071  67.144  14.030  0.00  0.00    +0.031 A 
ATOM     15  C17 CHE B   02     18.990  67.239  14.041  0.00  0.00    +0.090 A 
ATOM     16  N4  CHE B   02     23.795  68.397  12.976  0.00  0.00    -0.245 NA
ENDBRANCH   5   7
BRANCH   1  22
ATOM     17  C1  CHE B   02     15.165  69.600   8.384  0.00  0.00    +0.065 C 
ATOM     18  C2  CHE B   02     19.869  67.728   5.161  0.00  0.00    +0.039 A 
ATOM     19  C3  CHE B   02     19.740  68.316   4.666  0.00  0.00    +0.023 A 
ATOM     20  C4  CHE B   02     18.986  68.489   5.321  0.00  0.00    +0.004 A 
ATOM     21  C5  CHE B   02     19.143  67.780   5.917  0.00  0.00    +0.030 A 
ATOM     22  C6  CHE B   02     16.149  68.379   8.612  0.00  0.00    +0.092 A 
ATOM     23  N5  CHE B   02     18.456  67.650   6.826  0.00  0.00    -0.250 NA
ENDBRANCH   1  22
TORSDOF 2
ENDMDL
MODEL 9
REMARK VINA RESULT:      -8.7      3.704      7.430
REMARK  Name = dock_mp/CHEMBL1/CHEMBL185238.pdb
REMARK  3 active torsions:
REMARK  status: ('A' for Active; 'I' for Inactive)
REMARK    1  A    between atoms: C1_1  and  C2_2
REMARK    2  A    between atoms: C6_6  and  C7_7
REMARK    3  A    between atoms: C9_11  and  C10_12
REMARK                            x       y       z     vdW  Elec       q    Type
REMARK                         _______ _______ _______ _____ _____    ______ ____
ROOT
ATOM      1  C7  CHE B   02     18.542  68.107  11.298  0.00  0.00    +0.120 A 
ATOM      2  N1  CHE B   02     16.741  68.587  13.665  0.00  0.00    -0.172 NA
ATOM      3  N2  CHE B   02     19.281  67.856   9.278  0.00  0.00    -0.283 N 
ATOM      4  C8  CHE B   02     16.516  68.478  10.724  0.00  0.00    +0.115 A 
ATOM      5  C9  CHE B   02     20.227  67.574   7.457  0.00  0.00    +0.047 A 
ATOM      6  H7  CHE B   02     20.537  67.528   7.752  0.00  0.00    +0.188 HD
ENDROOT
BRANCH   5   7
ATOM      7  C10 CHE B   02     19.659  67.658   6.914  0.00  0.00    +0.075 A 
ATOM      8  C11 CHE B   02     19.753  67.644   7.003  0.00  0.00    +0.030 A 
ATOM      9  C12 CHE B   02     20.570  68.370   5.168  0.00  0.00    +0.032 A 
ATOM     10  C13 CHE B   02     18.574  67.818   5.877  0.00  0.00    +0.089 A 
ATOM     11  N3  CHE B   02     23.476  70.480   0.096  0.00  0.00    -0.253 NA
ATOM     12  C14 CHE B   02     18.759  68.638   3.437  0.00  0.00    +0.111 A 
ATOM     13  C15 CHE B   02     17.280  68.010   4.640  0.00  0.00    +0.022 A 
ATOM     14  C16 CHE B   02     21.218  69.544   1.863  0.00  0.00    +0.031 A 
ATOM     15  C17 CHE B   02     18.480  67.832   5.788  0.00  0.00    +0.090 A 
ATOM     16  N4  CHE B   02     22.411  69.367   3.003  0.00  0.00    -0.245 NA
ENDBRANCH   5   7
BRANCH   1  22
ATOM     17  C1  CHE B   02     19.578  67.186  13.288  0.00  0.00    +0.065 C 
ATOM     18  C2  CHE B   02     22.788  71.319  10.350  0.00  0.00    +0.039 A 
ATOM     19  C3  CHE B   02     23.349  71.236  10.886  0.00  0.00    +0.023 A 
ATOM     20  C4  CHE B   02     22.681  70.566  11.248  0.00  0.00    +0.004 A 
ATOM     21  C5  CHE B   02     22.005  70.666  10.603  0.00  0.00    +0.030 A 
ATOM     22  C6  CHE B   02     19.247  68.003  11.971  0.00  0.00    +0.092 A 
ATOM     23  N5  CHE B   02     21.050  70.040  10.690  0.00  0.00    -0.250 NA
ENDBRANCH   1  22
TORSDOF 2
ENDMDL
MODEL 10
REMARK VINA RESULT:      -8.5      4.145      7.129
REMARK  Name = dock_mp/CHEMBL1/CHEMBL185238.pdb
REMARK  3 active torsions:
REMARK  status: ('A' for Active; 'I' for Inactive)
REMARK    1  A    between atoms: C1_1  and  C2_2
REMARK    2  A    between atoms: C6_6  and  C7_7
REMARK    3  A    between atoms: C9_11  and  C10_12
REMARK                            x       y       z     vdW  Elec       q    Type
REMARK                         _______ _______ _______ _____ _____    ______ ____
ROOT
ATOM      1  C7  CHE B   02     19.127  68.189  11.077  0.00  0.00    +0.120 A 
ATOM      2  N1  CHE B   02     17.674  66.706  13.261  0.00  0.00    -0.172 NA
ATOM      3  N2  CHE B   02     19.706  68.983   9.148  0.00  0.00    -0.283 N 
ATOM      4  C8  CHE B   02     17.440  67.098  10.346  0.00  0.00    +0.115 A 
ATOM      5  C9  CHE B   02     20.460  69.865   7.432  0.00  0.00    +0.047 A 
ATOM      6  H7  CHE B   02     20.721  69.995   7.748  0.00  0.00    +0.188 HD
ENDROOT
BRANCH   5   7
ATOM      7  C10 CHE B   02     19.981  69.628   6.851  0.00  0.00    +0.075 A 
ATOM      8  C11 CHE B   02     20.060  69.667   6.946  0.00  0.00    +0.030 A 
ATOM      9  C12 CHE B   02     21.062  69.763   5.062  0.00  0.00    +0.032 A 
ATOM     10  C13 CHE B   02     19.065  69.174   5.739  0.00  0.00    +0.089 A 
ATOM     11  N3  CHE B   02     24.449  70.242  -0.126  0.00  0.00    -0.253 NA
ATOM     12  C14 CHE B   02     19.533  69.006   3.208  0.00  0.00    +0.111 A 
ATOM     13  C15 CHE B   02     17.974  68.632   4.414  0.00  0.00    +0.022 A 
ATOM     14  C16 CHE B   02     22.076  69.666   1.644  0.00  0.00    +0.031 A 
ATOM     15  C17 CHE B   02     18.986  69.135   5.644  0.00  0.00    +0.090 A 
ATOM     16  N4  CHE B   02     23.083  70.165   2.865  0.00  0.00    -0.245 NA
ENDBRANCH   5   7
BRANCH   1  22
ATOM     17  C1  CHE B   02     19.680  69.207  13.208  0.00  0.00    +0.065 C 
ATOM     18  C2  CHE B   02     24.315  67.038  10.072  0.00  0.00    +0.039 A 
ATOM     19  C3  CHE B   02     24.788  67.272  10.646  0.00  0.00    +0.023 A 
ATOM     20  C4  CHE B   02     23.903  67.578  11.032  0.00  0.00    +0.004 A 
ATOM     21  C5  CHE B   02     23.333  67.296  10.340  0.00  0.00    +0.030 A 
ATOM     22  C6  CHE B   02     19.722  68.483  11.799  0.00  0.00    +0.092 A 
ATOM     23  N5  CHE B   02     22.206  67.481  10.433  0.00  0.00    -0.250 NA
ENDBRANCH   1  22
TORSDOF 2
ENDMDL
