REMARK  Name = dock_mp/CHEMBL5/CHEMBL567287.pdb
REMARK  6 active torsions:
REMARK  status: ('A' for Active; 'I' for Inactive)
REMARK    1  A    between atoms: C1_2  and  C2_3
REMARK    2  A    between atoms: C2_3  and  N1_4
REMARK    3  A    between atoms: N2_9  and  C7_10
REMARK    4  A    between atoms: C10_13  and  C11_14
REMARK    5  A    between atoms: C13_16  and  C14_17
REMARK    6  A    between atoms: C16_21  and  C17_22
REMARK                            x       y       z     vdW  Elec       q    Type
REMARK                         _______ _______ _______ _____ _____    ______ ____
ROOT
ATOM      1  C11 CHE B   02      1.000   1.950   8.000  0.00  0.00    +0.072 A 
ATOM      2  C12 CHE B   02      1.000   2.840   0.000  0.00  0.00    +0.037 A 
ATOM      3  C13 CHE B   02      1.000   4.110   9.000  0.00  0.00    -0.011 A 
ATOM      4  C22 CHE B   02      1.000   4.460   6.000  0.00  0.00    +0.028 A 
ATOM      5  C23 CHE B   02      1.000   3.580   9.000  0.00  0.00    +0.112 A 
ATOM      6  N6  CHE B   02      1.000   2.370   7.000  0.00  0.00    -0.255 NA
ENDROOT
BRANCH   1  10
ATOM      7  C7  CHE B   02      1.000  -1.950   7.000  0.00  0.00    +0.033 A 
ATOM      8  C8  CHE B   02      1.000  -1.170   1.000  0.00  0.00    +0.024 A 
ATOM      9  C9  CHE B   02      1.000   0.100   8.000  0.00  0.00    +0.012 A 
ATOM     10  C10 CHE B   02      1.000   0.620   0.000  0.00  0.00    +0.000 A 
ATOM     11  C24 CHE B   02      1.000  -0.190   9.000  0.00  0.00    +0.012 A 
ATOM     12  C25 CHE B   02      1.000  -1.460   7.000  0.00  0.00    +0.024 A 
BRANCH   7  15
ATOM     13  O1  CHE B   02      1.000  -4.020   8.000  0.00  0.00    -0.278 OA
ATOM     14  C1  CHE B   02      1.000  -4.320   2.000  0.00  0.00    +0.201 C 
ATOM     15  N2  CHE B   02      1.000  -3.270   2.000  0.00  0.00    -0.287 N 
ATOM     16  H12 CHE B   02      1.000  -3.480   8.000  0.00  0.00    +0.155 HD
BRANCH  14  17
ATOM     17  C2  CHE B   02      1.000  -5.740   0.000  0.00  0.00    +0.019 C 
BRANCH  17  18
ATOM     18  N1  CHE B   02      1.000  -6.470   0.000  0.00  0.00    +0.385 N 
ATOM     19  C3  CHE B   02      1.000  -6.730   4.000  0.00  0.00    -0.078 C 
ATOM     20  C4  CHE B   02      1.000  -7.980   2.000  0.00  0.00    -0.020 C 
ATOM     21  C5  CHE B   02      1.000  -8.740   7.000  0.00  0.00    -0.020 C 
ATOM     22  C6  CHE B   02      1.000  -7.770   7.000  0.00  0.00    -0.078 C 
ATOM     23  H3  CHE B   02      1.000  -5.870   3.000  0.00  0.00    -0.081 HD
ENDBRANCH  17  18
ENDBRANCH  14  17
ENDBRANCH   7  15
ENDBRANCH   1  10
BRANCH   3  24
ATOM     24  C14 CHE B   02      1.000   4.970   6.000  0.00  0.00    +0.029 A 
ATOM     25  C15 CHE B   02      1.000   4.650   8.000  0.00  0.00    +0.114 A 
ATOM     26  N3  CHE B   02      1.000   5.640   9.000  0.00  0.00    -0.284 N 
ATOM     27  N4  CHE B   02      1.000   6.560   7.000  0.00  0.00    -0.172 NA
ATOM     28  C16 CHE B   02      1.000   6.180   4.000  0.00  0.00    +0.118 A 
ATOM     29  H17 CHE B   02      1.000   5.660   9.000  0.00  0.00    +0.188 HD
BRANCH  28  30
ATOM     30  C17 CHE B   02      1.000   6.900   7.000  0.00  0.00    +0.091 A 
ATOM     31  C18 CHE B   02      1.000   7.570   7.000  0.00  0.00    +0.030 A 
ATOM     32  C19 CHE B   02      1.000   8.250   2.000  0.00  0.00    +0.004 A 
ATOM     33  C20 CHE B   02      1.000   8.240   8.000  0.00  0.00    +0.020 A 
ATOM     34  C21 CHE B   02      1.000   7.570   9.000  0.00  0.00    +0.111 A 
ATOM     35  N5  CHE B   02      1.000   6.930   8.000  0.00  0.00    -0.253 NA
ENDBRANCH  28  30
ENDBRANCH   3  24
TORSDOF 6
