REMARK  Name = dock_mp/CHEMBL5/CHEMBL560815.pdb
REMARK  4 active torsions:
REMARK  status: ('A' for Active; 'I' for Inactive)
REMARK    1  A    between atoms: C1_1  and  C2_2
REMARK    2  A    between atoms: C6_6  and  C7_7
REMARK    3  A    between atoms: C9_9  and  N1_10
REMARK    4  A    between atoms: N1_10  and  C10_11
REMARK                            x       y       z     vdW  Elec       q    Type
REMARK                         _______ _______ _______ _____ _____    ______ ____
ROOT
ATOM      1  C7  CHE B   08      1.000   0.980   7.000  0.00  0.00    +0.092 A 
ATOM      2  C8  CHE B   08      1.000  -0.180   6.000  0.00  0.00    +0.053 A 
ATOM      3  C9  CHE B   08      1.000  -1.420   1.000  0.00  0.00    +0.043 A 
ATOM      4  C15 CHE B   08      1.000  -1.450   3.000  0.00  0.00    +0.022 A 
ATOM      5  C16 CHE B   08      1.000  -2.610   4.000  0.00  0.00    +0.012 A 
ATOM      6  C17 CHE B   08      1.000  -2.620   0.000  0.00  0.00    +0.001 A 
ATOM      7  C18 CHE B   08      1.000  -1.460   1.000  0.00  0.00    +0.002 A 
ATOM      8  C19 CHE B   08      1.000  -0.280   7.000  0.00  0.00    +0.028 A 
ATOM      9  C20 CHE B   08      1.000  -0.280   4.000  0.00  0.00    +0.073 A 
ATOM     10  N3  CHE B   08      1.000   0.900   5.000  0.00  0.00    -0.245 NA
ENDROOT
BRANCH   1  16
ATOM     11  C1  CHE B   08      1.000   3.630   4.000  0.00  0.00    +0.065 C 
ATOM     12  C2  CHE B   08      1.000   3.530   2.000  0.00  0.00    +0.039 A 
ATOM     13  C3  CHE B   08      1.000   4.690   7.000  0.00  0.00    +0.023 A 
ATOM     14  C4  CHE B   08      1.000   4.640   0.000  0.00  0.00    +0.004 A 
ATOM     15  C5  CHE B   08      1.000   3.400   1.000  0.00  0.00    +0.030 A 
ATOM     16  C6  CHE B   08      1.000   2.260   9.000  0.00  0.00    +0.089 A 
ATOM     17  N4  CHE B   08      1.000   2.340   2.000  0.00  0.00    -0.250 NA
ENDBRANCH   1  16
BRANCH   3  18
ATOM     18  N1  CHE B   08      1.000  -2.610   7.000  0.00  0.00    -0.314 N 
ATOM     19  H8  CHE B   08      1.000  -3.550   1.000  0.00  0.00    +0.152 HD
BRANCH  18  20
ATOM     20  C10 CHE B   08      1.000  -2.660   0.000  0.00  0.00    +0.034 A 
ATOM     21  C11 CHE B   08      1.000  -3.350   2.000  0.00  0.00    +0.043 A 
ATOM     22  C12 CHE B   08      1.000  -3.440   6.000  0.00  0.00    +0.112 A 
ATOM     23  N2  CHE B   08      1.000  -2.830   8.000  0.00  0.00    -0.263 NA
ATOM     24  C13 CHE B   08      1.000  -2.150   0.000  0.00  0.00    +0.112 A 
ATOM     25  C14 CHE B   08      1.000  -2.060   0.000  0.00  0.00    +0.043 A 
ENDBRANCH  18  20
ENDBRANCH   3  18
TORSDOF 3
