REMARK  Name = dock_mp/CHEMBL5/CHEMBL565846.pdb
REMARK  7 active torsions:
REMARK  status: ('A' for Active; 'I' for Inactive)
REMARK    1  A    between atoms: C1_1  and  C2_2
REMARK    2  A    between atoms: C6_6  and  C7_7
REMARK    3  A    between atoms: C8_9  and  C9_10
REMARK    4  A    between atoms: C9_10  and  N2_11
REMARK    5  A    between atoms: N2_11  and  C10_12
REMARK    6  A    between atoms: C13_15  and  C14_16
REMARK    7  A    between atoms: C17_21  and  C18_22
REMARK                            x       y       z     vdW  Elec       q    Type
REMARK                         _______ _______ _______ _____ _____    ______ ____
ROOT
ATOM      1  C7  CHE B   08      1.000  -1.060   1.000  0.00  0.00    +0.092 A 
ATOM      2  N1  CHE B   08      1.000   0.220   8.000  0.00  0.00    -0.339 N 
ATOM      3  C8  CHE B   08      1.000   0.970   3.000  0.00  0.00    +0.125 A 
ATOM      4  N4  CHE B   08      1.000   0.140   9.000  0.00  0.00    -0.231 NA
ATOM      5  C17 CHE B   08      1.000  -1.120   8.000  0.00  0.00    +0.094 A 
ATOM      6  H7  CHE B   08      1.000   0.660   3.000  0.00  0.00    +0.167 HD
ENDROOT
BRANCH   5   7
ATOM      7  C18 CHE B   08      1.000  -2.220   0.000  0.00  0.00    -0.017 C 
ATOM      8  C19 CHE B   08      1.000  -3.400   4.000  0.00  0.00    +0.009 C 
ATOM      9  C20 CHE B   08      1.000  -4.470   7.000  0.00  0.00    +0.044 C 
ATOM     10  C21 CHE B   08      1.000  -4.250   0.000  0.00  0.00    +0.130 C 
ATOM     11  O1  CHE B   08      1.000  -4.990   1.000  0.00  0.00    -0.468 OA
ATOM     12  C22 CHE B   08      1.000  -4.000   3.000  0.00  0.00    +0.395 C 
ATOM     13  O2  CHE B   08      1.000  -2.740   4.000  0.00  0.00    -0.333 OA
ATOM     14  C23 CHE B   08      1.000  -2.970   2.000  0.00  0.00    +0.191 C 
ATOM     15  C24 CHE B   08      1.000  -1.890   8.000  0.00  0.00    +0.077 C 
ENDBRANCH   5   7
BRANCH   1  21
ATOM     16  C1  CHE B   08      1.000  -1.900   1.000  0.00  0.00    +0.065 C 
ATOM     17  C2  CHE B   08      1.000  -2.430   3.000  0.00  0.00    +0.039 A 
ATOM     18  C3  CHE B   08      1.000  -3.710   3.000  0.00  0.00    +0.023 A 
ATOM     19  C4  CHE B   08      1.000  -4.170   8.000  0.00  0.00    +0.004 A 
ATOM     20  C5  CHE B   08      1.000  -3.320   5.000  0.00  0.00    +0.030 A 
ATOM     21  C6  CHE B   08      1.000  -2.060   1.000  0.00  0.00    +0.089 A 
ATOM     22  N5  CHE B   08      1.000  -1.650   2.000  0.00  0.00    -0.250 NA
ENDBRANCH   1  21
BRANCH   3  23
ATOM     23  C9  CHE B   08      1.000   2.420   0.000  0.00  0.00    +0.175 C 
BRANCH  23  24
ATOM     24  N2  CHE B   08      1.000   3.140   5.000  0.00  0.00    -0.337 N 
ATOM     25  H10 CHE B   08      1.000   2.650   4.000  0.00  0.00    +0.147 HD
BRANCH  24  26
ATOM     26  C10 CHE B   08      1.000   4.580   2.000  0.00  0.00    +0.028 A 
ATOM     27  C11 CHE B   08      1.000   5.290   0.000  0.00  0.00    +0.024 A 
ATOM     28  C12 CHE B   08      1.000   6.670   2.000  0.00  0.00    +0.020 A 
ATOM     29  C13 CHE B   08      1.000   7.340   3.000  0.00  0.00    +0.052 A 
ATOM     30  C15 CHE B   08      1.000   6.630   6.000  0.00  0.00    +0.020 A 
ATOM     31  C16 CHE B   08      1.000   5.260   2.000  0.00  0.00    +0.024 A 
BRANCH  29  32
ATOM     32  C14 CHE B   08      1.000   8.770   3.000  0.00  0.00    +0.099 C 
ATOM     33  N3  CHE B   08      1.000   9.920   9.000  0.00  0.00    -0.191 NA
ENDBRANCH  29  32
ENDBRANCH  24  26
ENDBRANCH  23  24
ENDBRANCH   3  23
TORSDOF 6
