REMARK  Name = dock_mp/CHEMBL5/CHEMBL565422.pdb
REMARK  7 active torsions:
REMARK  status: ('A' for Active; 'I' for Inactive)
REMARK    1  A    between atoms: C1_1  and  C2_2
REMARK    2  A    between atoms: C6_6  and  C7_7
REMARK    3  A    between atoms: C8_9  and  C9_10
REMARK    4  A    between atoms: C9_10  and  N2_11
REMARK    5  A    between atoms: N2_11  and  C10_12
REMARK    6  A    between atoms: C13_15  and  C14_16
REMARK    7  A    between atoms: C17_22  and  C18_23
REMARK                            x       y       z     vdW  Elec       q    Type
REMARK                         _______ _______ _______ _____ _____    ______ ____
ROOT
ATOM      1  C7  CHE B   04      1.000  -1.160   2.000  0.00  0.00    +0.093 A 
ATOM      2  N1  CHE B   04      1.000   0.140   1.000  0.00  0.00    -0.339 N 
ATOM      3  C8  CHE B   04      1.000   0.940   5.000  0.00  0.00    +0.125 A 
ATOM      4  N4  CHE B   04      1.000   0.160   2.000  0.00  0.00    -0.230 NA
ATOM      5  C17 CHE B   04      1.000  -1.160   4.000  0.00  0.00    +0.098 A 
ATOM      6  H7  CHE B   04      1.000   0.520   3.000  0.00  0.00    +0.167 HD
ENDROOT
BRANCH   5   7
ATOM      7  C18 CHE B   04      1.000  -2.140   5.000  0.00  0.00    +0.000 C 
ATOM      8  C19 CHE B   04      1.000  -3.110   0.000  0.00  0.00    +0.007 C 
ATOM      9  C20 CHE B   04      1.000  -4.080   8.000  0.00  0.00    +0.118 C 
ATOM     10  N5  CHE B   04      1.000  -4.650   7.000  0.00  0.00    -0.340 N 
ATOM     11  C21 CHE B   04      1.000  -5.700   2.000  0.00  0.00    +0.083 C 
ATOM     12  C22 CHE B   04      1.000  -5.820   4.000  0.00  0.00    +0.083 C 
ATOM     13  N6  CHE B   04      1.000  -4.910   6.000  0.00  0.00    -0.340 N 
ATOM     14  C23 CHE B   04      1.000  -3.710   5.000  0.00  0.00    +0.117 C 
ATOM     15  C24 CHE B   04      1.000  -2.690   3.000  0.00  0.00    -0.002 C 
ATOM     16  C25 CHE B   04      1.000  -1.940   6.000  0.00  0.00    +0.007 C 
ATOM     17  H19 CHE B   04      1.000  -4.370   8.000  0.00  0.00    +0.146 HD
ATOM     18  H22 CHE B   04      1.000  -5.130   0.000  0.00  0.00    +0.146 HD
ENDBRANCH   5   7
BRANCH   1  24
ATOM     19  C1  CHE B   04      1.000  -2.210   7.000  0.00  0.00    +0.065 C 
ATOM     20  C2  CHE B   04      1.000  -2.730   7.000  0.00  0.00    +0.039 A 
ATOM     21  C3  CHE B   04      1.000  -4.080   9.000  0.00  0.00    +0.023 A 
ATOM     22  C4  CHE B   04      1.000  -4.530   2.000  0.00  0.00    +0.004 A 
ATOM     23  C5  CHE B   04      1.000  -3.570   7.000  0.00  0.00    +0.030 A 
ATOM     24  C6  CHE B   04      1.000  -2.230   5.000  0.00  0.00    +0.090 A 
ATOM     25  N7  CHE B   04      1.000  -1.860   9.000  0.00  0.00    -0.250 NA
ENDBRANCH   1  24
BRANCH   3  26
ATOM     26  C9  CHE B   04      1.000   2.410   5.000  0.00  0.00    +0.175 C 
BRANCH  26  27
ATOM     27  N2  CHE B   04      1.000   2.990   6.000  0.00  0.00    -0.337 N 
ATOM     28  H10 CHE B   04      1.000   2.410   6.000  0.00  0.00    +0.147 HD
BRANCH  27  29
ATOM     29  C10 CHE B   04      1.000   4.420   0.000  0.00  0.00    +0.027 A 
ATOM     30  C11 CHE B   04      1.000   5.000   6.000  0.00  0.00    +0.023 A 
ATOM     31  C12 CHE B   04      1.000   6.380   2.000  0.00  0.00    +0.015 A 
ATOM     32  C13 CHE B   04      1.000   7.190   6.000  0.00  0.00    +0.037 A 
ATOM     33  C15 CHE B   04      1.000   6.640   9.000  0.00  0.00    +0.015 A 
ATOM     34  C16 CHE B   04      1.000   5.270   5.000  0.00  0.00    +0.023 A 
BRANCH  32  35
ATOM     35  C14 CHE B   04      1.000   8.630   9.000  0.00  0.00    +0.242 C 
ATOM     36  O1  CHE B   04      1.000   9.060   4.000  0.00  0.00    -0.270 OA
ATOM     37  N3  CHE B   04      1.000   9.530   9.000  0.00  0.00    -0.325 N 
ATOM     38  H13 CHE B   04      1.000   9.860   5.000  0.00  0.00    +0.145 HD
ATOM     39  H14 CHE B   04      1.000   9.850   9.000  0.00  0.00    +0.145 HD
ENDBRANCH  32  35
ENDBRANCH  27  29
ENDBRANCH  26  27
ENDBRANCH   3  26
TORSDOF 6
