REMARK  Name = dock_mp/CHEMBL5/CHEMBL593725.pdb
REMARK  4 active torsions:
REMARK  status: ('A' for Active; 'I' for Inactive)
REMARK    1  A    between atoms: C1_1  and  N1_2
REMARK    2  A    between atoms: C2_3  and  C3_4
REMARK    3  A    between atoms: C11_14  and  C12_15
REMARK    4  A    between atoms: N5_23  and  C18_24
REMARK                            x       y       z     vdW  Elec       q    Type
REMARK                         _______ _______ _______ _____ _____    ______ ____
ROOT
ATOM      1  C1  CHE B   07      1.000  -0.010   2.000  0.00  0.00    +0.171 C 
ATOM      2  N1  CHE B   07      1.000  -0.910   5.000  0.00  0.00    -0.283 N 
ATOM      3  C2  CHE B   07      1.000  -0.530   3.000  0.00  0.00    +0.080 A 
ATOM      4  C11 CHE B   07      1.000  -1.680   7.000  0.00  0.00    +0.092 A 
ATOM      5  C17 CHE B   07      1.000  -2.750   7.000  0.00  0.00    +0.277 A 
ATOM      6  O1  CHE B   07      1.000  -3.960   7.000  0.00  0.00    -0.265 OA
ATOM      7  N5  CHE B   07      1.000  -2.240   3.000  0.00  0.00    -0.252 N 
ATOM      8  C18 CHE B   07      1.000  -3.080   4.000  0.00  0.00    +0.174 C 
ENDROOT
BRANCH   3   9
ATOM      9  C3  CHE B   07      1.000   0.790   3.000  0.00  0.00    +0.003 A 
ATOM     10  C4  CHE B   07      1.000   1.700   9.000  0.00  0.00    +0.012 A 
ATOM     11  C5  CHE B   07      1.000   2.950   5.000  0.00  0.00    +0.030 A 
ATOM     12  C6  CHE B   07      1.000   3.260   1.000  0.00  0.00    +0.089 A 
ATOM     13  N2  CHE B   07      1.000   4.470   0.000  0.00  0.00    -0.252 NA
ATOM     14  C7  CHE B   07      1.000   4.770   9.000  0.00  0.00    +0.131 A 
ATOM     15  C8  CHE B   07      1.000   3.850   6.000  0.00  0.00    +0.131 A 
ATOM     16  N3  CHE B   07      1.000   2.640   1.000  0.00  0.00    -0.252 NA
ATOM     17  C9  CHE B   07      1.000   2.350   8.000  0.00  0.00    +0.090 A 
ATOM     18  C10 CHE B   07      1.000   1.110   8.000  0.00  0.00    +0.040 A 
ENDBRANCH   3   9
BRANCH   4  19
ATOM     19  C12 CHE B   07      1.000  -1.780   2.000  0.00  0.00    +0.078 A 
ATOM     20  C13 CHE B   07      1.000  -1.270   4.000  0.00  0.00    +0.028 A 
ATOM     21  C14 CHE B   07      1.000  -1.440   0.000  0.00  0.00    +0.004 A 
ATOM     22  C15 CHE B   07      1.000  -2.100   2.000  0.00  0.00    +0.020 A 
ATOM     23  C16 CHE B   07      1.000  -2.590   0.000  0.00  0.00    +0.111 A 
ATOM     24  N4  CHE B   07      1.000  -2.420   7.000  0.00  0.00    -0.255 NA
ENDBRANCH   4  19
TORSDOF 2
