REMARK  Name = dock_mp/CHEMBL5/CHEMBL564660.pdb
REMARK  3 active torsions:
REMARK  status: ('A' for Active; 'I' for Inactive)
REMARK    1  A    between atoms: N1_1  and  C1_2
REMARK    2  A    between atoms: N1_1  and  C6_8
REMARK    3  A    between atoms: C7_10  and  C8_11
REMARK                            x       y       z     vdW  Elec       q    Type
REMARK                         _______ _______ _______ _____ _____    ______ ____
ROOT
ATOM      1  C6  CHE B   06      1.000  -0.310   8.000  0.00  0.00    +0.135 A 
ATOM      2  N3  CHE B   06      1.000   0.740   9.000  0.00  0.00    -0.212 NA
ATOM      3  C7  CHE B   06      1.000   1.660   1.000  0.00  0.00    +0.162 A 
ATOM      4  N4  CHE B   06      1.000   1.460   0.000  0.00  0.00    -0.227 NA
ATOM      5  C14 CHE B   06      1.000   0.400   9.000  0.00  0.00    +0.077 A 
ATOM      6  C15 CHE B   06      1.000   0.220   6.000  0.00  0.00    +0.028 A 
ATOM      7  C16 CHE B   06      1.000  -0.880   6.000  0.00  0.00    +0.002 A 
ATOM      8  C17 CHE B   06      1.000  -1.830   3.000  0.00  0.00    +0.001 A 
ATOM      9  C18 CHE B   06      1.000  -1.640   8.000  0.00  0.00    +0.013 A 
ATOM     10  C19 CHE B   06      1.000  -0.520   5.000  0.00  0.00    +0.040 A 
ENDROOT
BRANCH   3  11
ATOM     11  C8  CHE B   06      1.000   2.840   6.000  0.00  0.00    +0.019 A 
ATOM     12  C9  CHE B   06      1.000   3.040   5.000  0.00  0.00    +0.011 A 
ATOM     13  C10 CHE B   06      1.000   4.180   2.000  0.00  0.00    +0.001 A 
ATOM     14  C11 CHE B   06      1.000   5.070   6.000  0.00  0.00    +0.000 A 
ATOM     15  C12 CHE B   06      1.000   4.850   8.000  0.00  0.00    +0.001 A 
ATOM     16  C13 CHE B   06      1.000   3.720   8.000  0.00  0.00    +0.011 A 
ENDBRANCH   3  11
BRANCH   1  17
ATOM     17  N1  CHE B   06      1.000  -1.340   3.000  0.00  0.00    -0.299 N 
ATOM     18  H1  CHE B   06      1.000  -1.220   7.000  0.00  0.00    +0.154 HD
BRANCH  17  19
ATOM     19  C1  CHE B   06      1.000  -2.540   5.000  0.00  0.00    +0.035 A 
ATOM     20  C2  CHE B   06      1.000  -2.630   2.000  0.00  0.00    +0.043 A 
ATOM     21  C3  CHE B   06      1.000  -3.780   6.000  0.00  0.00    +0.112 A 
ATOM     22  N2  CHE B   06      1.000  -4.820   8.000  0.00  0.00    -0.263 NA
ATOM     23  C4  CHE B   06      1.000  -4.770   3.000  0.00  0.00    +0.112 A 
ATOM     24  C5  CHE B   06      1.000  -3.630   6.000  0.00  0.00    +0.043 A 
ENDBRANCH  17  19
ENDBRANCH   1  17
TORSDOF 3
