REMARK  Name = dock_mp/CHEMBL5/CHEMBL585367.pdb
REMARK  8 active torsions:
REMARK  status: ('A' for Active; 'I' for Inactive)
REMARK    1  A    between atoms: C1_1  and  C2_2
REMARK    2  A    between atoms: C5_5  and  O1_6
REMARK    3  A    between atoms: O1_6  and  C6_7
REMARK    4  A    between atoms: C9_11  and  N2_12
REMARK    5  A    between atoms: N2_12  and  C10_13
REMARK    6  A    between atoms: C13_16  and  S1_17
REMARK    7  A    between atoms: S1_17  and  N3_20
REMARK    8  A    between atoms: C17_24  and  C18_25
REMARK                            x       y       z     vdW  Elec       q    Type
REMARK                         _______ _______ _______ _____ _____    ______ ____
ROOT
ATOM      1  C6  CHE B   03      1.000   1.610   7.000  0.00  0.00    +0.133 A 
ATOM      2  C7  CHE B   03      1.000   1.600   9.000  0.00  0.00    +0.066 A 
ATOM      3  C8  CHE B   03      1.000   0.380   2.000  0.00  0.00    +0.116 A 
ATOM      4  N1  CHE B   03      1.000  -0.770   8.000  0.00  0.00    -0.240 NA
ATOM      5  C9  CHE B   03      1.000  -0.810   6.000  0.00  0.00    +0.126 A 
ATOM      6  C16 CHE B   03      1.000   0.410   1.000  0.00  0.00    +0.090 A 
ENDROOT
BRANCH   5   7
ATOM      7  N2  CHE B   03      1.000  -1.990   0.000  0.00  0.00    -0.299 N 
ATOM      8  H8  CHE B   03      1.000  -1.870   3.000  0.00  0.00    +0.154 HD
BRANCH   7   9
ATOM      9  C10 CHE B   03      1.000  -3.310   6.000  0.00  0.00    +0.032 A 
ATOM     10  C11 CHE B   03      1.000  -3.690   8.000  0.00  0.00    +0.025 A 
ATOM     11  C12 CHE B   03      1.000  -5.030   1.000  0.00  0.00    +0.030 A 
ATOM     12  C13 CHE B   03      1.000  -6.030   8.000  0.00  0.00    +0.105 A 
ATOM     13  C14 CHE B   03      1.000  -5.680   2.000  0.00  0.00    +0.030 A 
ATOM     14  C15 CHE B   03      1.000  -4.350   7.000  0.00  0.00    +0.025 A 
BRANCH  12  15
ATOM     15  S1  CHE B   03      1.000  -7.700   0.000  0.00  0.00    +0.056 S 
ATOM     16  O2  CHE B   03      1.000  -8.620   3.000  0.00  0.00    -0.153 OA
ATOM     17  O3  CHE B   03      1.000  -7.790   4.000  0.00  0.00    -0.153 OA
BRANCH  15  18
ATOM     18  N3  CHE B   03      1.000  -8.250   0.000  0.00  0.00    -0.204 NA
ATOM     19  H11 CHE B   03      1.000  -7.690   0.000  0.00  0.00    +0.144 HD
ATOM     20  H12 CHE B   03      1.000  -8.170   2.000  0.00  0.00    +0.144 HD
ENDBRANCH  15  18
ENDBRANCH  12  15
ENDBRANCH   7   9
ENDBRANCH   5   7
BRANCH   1  21
ATOM     21  O1  CHE B   03      1.000   2.770   6.000  0.00  0.00    -0.454 OA
BRANCH  21  26
ATOM     22  C1  CHE B   03      1.000   7.990   3.000  0.00  0.00    +0.065 C 
ATOM     23  C2  CHE B   03      1.000   6.630   6.000  0.00  0.00    +0.039 A 
ATOM     24  C3  CHE B   03      1.000   6.280   4.000  0.00  0.00    +0.026 A 
ATOM     25  C4  CHE B   03      1.000   4.980   8.000  0.00  0.00    +0.050 A 
ATOM     26  C5  CHE B   03      1.000   4.060   4.000  0.00  0.00    +0.149 A 
ATOM     27  C17 CHE B   03      1.000   4.470   2.000  0.00  0.00    +0.081 A 
ATOM     28  C18 CHE B   03      1.000   3.550   4.000  0.00  0.00    +0.069 C 
ATOM     29  N4  CHE B   03      1.000   5.730   1.000  0.00  0.00    -0.253 NA
ENDBRANCH  21  26
ENDBRANCH   1  21
TORSDOF 6
