REMARK  Name = dock_mp/CHEMBL5/CHEMBL593951.pdb
REMARK  4 active torsions:
REMARK  status: ('A' for Active; 'I' for Inactive)
REMARK    1  A    between atoms: C1_1  and  N1_2
REMARK    2  A    between atoms: C2_3  and  C3_4
REMARK    3  A    between atoms: C11_14  and  C12_15
REMARK    4  A    between atoms: N4_22  and  C17_23
REMARK                            x       y       z     vdW  Elec       q    Type
REMARK                         _______ _______ _______ _____ _____    ______ ____
ROOT
ATOM      1  C1  CHE B   09      1.000  -0.430   4.000  0.00  0.00    +0.171 C 
ATOM      2  N1  CHE B   09      1.000  -1.300   4.000  0.00  0.00    -0.283 N 
ATOM      3  C2  CHE B   09      1.000  -0.870   1.000  0.00  0.00    +0.078 A 
ATOM      4  C11 CHE B   09      1.000  -2.000   7.000  0.00  0.00    +0.074 A 
ATOM      5  C16 CHE B   09      1.000  -3.100   7.000  0.00  0.00    +0.275 A 
ATOM      6  O1  CHE B   09      1.000  -4.300   0.000  0.00  0.00    -0.266 OA
ATOM      7  N4  CHE B   09      1.000  -2.620   3.000  0.00  0.00    -0.252 N 
ATOM      8  C17 CHE B   09      1.000  -3.390   4.000  0.00  0.00    +0.174 C 
ENDROOT
BRANCH   3   9
ATOM      9  C3  CHE B   09      1.000   0.510   4.000  0.00  0.00    +0.003 A 
ATOM     10  C4  CHE B   09      1.000   0.950   9.000  0.00  0.00    +0.012 A 
ATOM     11  C5  CHE B   09      1.000   2.300   6.000  0.00  0.00    +0.030 A 
ATOM     12  C6  CHE B   09      1.000   3.180   4.000  0.00  0.00    +0.089 A 
ATOM     13  N2  CHE B   09      1.000   4.490   4.000  0.00  0.00    -0.252 NA
ATOM     14  C7  CHE B   09      1.000   5.320   2.000  0.00  0.00    +0.131 A 
ATOM     15  C8  CHE B   09      1.000   4.850   7.000  0.00  0.00    +0.131 A 
ATOM     16  N3  CHE B   09      1.000   3.550   0.000  0.00  0.00    -0.252 NA
ATOM     17  C9  CHE B   09      1.000   2.720   5.000  0.00  0.00    +0.090 A 
ATOM     18  C10 CHE B   09      1.000   1.390   0.000  0.00  0.00    +0.040 A 
ENDBRANCH   3   9
BRANCH   4  19
ATOM     19  C12 CHE B   09      1.000  -2.010   9.000  0.00  0.00    -0.004 A 
ATOM     20  C13 CHE B   09      1.000  -1.470   6.000  0.00  0.00    +0.016 A 
ATOM     21  C14 CHE B   09      1.000  -1.590   1.000  0.00  0.00    +0.046 A 
ATOM     22  S1  CHE B   09      1.000  -2.520   8.000  0.00  0.00    -0.104 S 
ATOM     23  C15 CHE B   09      1.000  -2.710   3.000  0.00  0.00    +0.054 A 
ENDBRANCH   4  19
TORSDOF 2
