REMARK  Name = dock_mp/CHEMBL5/CHEMBL571452.pdb
REMARK  3 active torsions:
REMARK  status: ('A' for Active; 'I' for Inactive)
REMARK    1  A    between atoms: C1_1  and  C2_2
REMARK    2  A    between atoms: C6_6  and  C7_7
REMARK    3  A    between atoms: C8_9  and  N2_10
REMARK                            x       y       z     vdW  Elec       q    Type
REMARK                         _______ _______ _______ _____ _____    ______ ____
ROOT
ATOM      1  C7  CHE B   04      1.000   0.830   4.000  0.00  0.00    +0.181 A 
ATOM      2  N1  CHE B   04      1.000  -0.490   1.000  0.00  0.00    -0.210 NA
ATOM      3  C8  CHE B   04      1.000  -1.370   0.000  0.00  0.00    +0.136 A 
ATOM      4  C13 CHE B   04      1.000  -0.790   6.000  0.00  0.00    +0.041 A 
ATOM      5  C14 CHE B   04      1.000  -1.540   8.000  0.00  0.00    +0.013 A 
ATOM      6  C15 CHE B   04      1.000  -0.960   4.000  0.00  0.00    +0.001 A 
ATOM      7  C16 CHE B   04      1.000   0.400   7.000  0.00  0.00    +0.002 A 
ATOM      8  C17 CHE B   04      1.000   1.180   5.000  0.00  0.00    +0.028 A 
ATOM      9  C18 CHE B   04      1.000   0.570   7.000  0.00  0.00    +0.077 A 
ATOM     10  N5  CHE B   04      1.000   1.340   0.000  0.00  0.00    -0.226 NA
ENDROOT
BRANCH   3  11
ATOM     11  N2  CHE B   04      1.000  -2.760   4.000  0.00  0.00    -0.284 N 
ATOM     12  C9  CHE B   04      1.000  -3.490   1.000  0.00  0.00    +0.127 A 
ATOM     13  C10 CHE B   04      1.000  -2.950   2.000  0.00  0.00    +0.063 A 
ATOM     14  C11 CHE B   04      1.000  -3.740   4.000  0.00  0.00    +0.116 A 
ATOM     15  N3  CHE B   04      1.000  -5.050   9.000  0.00  0.00    -0.244 NA
ATOM     16  C12 CHE B   04      1.000  -5.620   2.000  0.00  0.00    +0.223 A 
ATOM     17  N4  CHE B   04      1.000  -4.850   6.000  0.00  0.00    -0.221 NA
ATOM     18  H7  CHE B   04      1.000  -3.350   3.000  0.00  0.00    +0.155 HD
ENDBRANCH   3  11
BRANCH   1  24
ATOM     19  C1  CHE B   04      1.000   5.450   4.000  0.00  0.00    +0.065 C 
ATOM     20  C2  CHE B   04      1.000   4.010   0.000  0.00  0.00    +0.039 A 
ATOM     21  C3  CHE B   04      1.000   3.620   8.000  0.00  0.00    +0.023 A 
ATOM     22  C4  CHE B   04      1.000   2.270   9.000  0.00  0.00    +0.004 A 
ATOM     23  C5  CHE B   04      1.000   1.360   3.000  0.00  0.00    +0.031 A 
ATOM     24  C6  CHE B   04      1.000   1.750   6.000  0.00  0.00    +0.108 A 
ATOM     25  N6  CHE B   04      1.000   3.090   9.000  0.00  0.00    -0.249 NA
ENDBRANCH   1  24
TORSDOF 2
