REMARK  Name = dock_mp/CHEMBL5/CHEMBL593708.pdb
REMARK  5 active torsions:
REMARK  status: ('A' for Active; 'I' for Inactive)
REMARK    1  A    between atoms: C1_1  and  N1_2
REMARK    2  A    between atoms: C2_3  and  C3_4
REMARK    3  A    between atoms: C11_14  and  C12_15
REMARK    4  A    between atoms: C16_19  and  C17_20
REMARK    5  A    between atoms: N4_25  and  C21_26
REMARK                            x       y       z     vdW  Elec       q    Type
REMARK                         _______ _______ _______ _____ _____    ______ ____
ROOT
ATOM      1  C1  CHE B   07      1.000  -2.020   0.000  0.00  0.00    +0.171 C 
ATOM      2  N1  CHE B   07      1.000  -0.730   2.000  0.00  0.00    -0.283 N 
ATOM      3  C2  CHE B   07      1.000  -0.370   9.000  0.00  0.00    +0.078 A 
ATOM      4  C11 CHE B   07      1.000   0.920   5.000  0.00  0.00    +0.073 A 
ATOM      5  C20 CHE B   07      1.000   1.330   6.000  0.00  0.00    +0.275 A 
ATOM      6  O1  CHE B   07      1.000   2.470   9.000  0.00  0.00    -0.266 OA
ATOM      7  N4  CHE B   07      1.000   0.300   5.000  0.00  0.00    -0.252 N 
ATOM      8  C21 CHE B   07      1.000   0.380   0.000  0.00  0.00    +0.174 C 
ENDROOT
BRANCH   3   9
ATOM      9  C3  CHE B   07      1.000  -1.230   4.000  0.00  0.00    +0.003 A 
ATOM     10  C4  CHE B   07      1.000  -1.760   8.000  0.00  0.00    +0.012 A 
ATOM     11  C5  CHE B   07      1.000  -2.580   2.000  0.00  0.00    +0.030 A 
ATOM     12  C6  CHE B   07      1.000  -2.900   2.000  0.00  0.00    +0.089 A 
ATOM     13  N2  CHE B   07      1.000  -3.700   5.000  0.00  0.00    -0.252 NA
ATOM     14  C7  CHE B   07      1.000  -3.980   7.000  0.00  0.00    +0.131 A 
ATOM     15  C8  CHE B   07      1.000  -3.470   8.000  0.00  0.00    +0.131 A 
ATOM     16  N3  CHE B   07      1.000  -2.660   9.000  0.00  0.00    -0.252 NA
ATOM     17  C9  CHE B   07      1.000  -2.370   2.000  0.00  0.00    +0.090 A 
ATOM     18  C10 CHE B   07      1.000  -1.550   2.000  0.00  0.00    +0.040 A 
ENDBRANCH   3   9
BRANCH   4  19
ATOM     19  C12 CHE B   07      1.000   1.740   6.000  0.00  0.00    -0.010 A 
ATOM     20  C13 CHE B   07      1.000   2.240   9.000  0.00  0.00    +0.009 A 
ATOM     21  C14 CHE B   07      1.000   3.020   3.000  0.00  0.00    +0.001 A 
ATOM     22  C15 CHE B   07      1.000   3.280   9.000  0.00  0.00    +0.008 A 
ATOM     23  C16 CHE B   07      1.000   2.780   7.000  0.00  0.00    -0.025 A 
ATOM     24  C19 CHE B   07      1.000   2.010   8.000  0.00  0.00    +0.016 A 
BRANCH  23  25
ATOM     25  C17 CHE B   07      1.000   3.050   8.000  0.00  0.00    +0.000 C 
ATOM     26  C18 CHE B   07      1.000   3.780   4.000  0.00  0.00    +0.009 C 
ENDBRANCH  23  25
ENDBRANCH   4  19
TORSDOF 3
