REMARK  Name = dock_mp/CHEMBL5/CHEMBL574413.pdb
REMARK  8 active torsions:
REMARK  status: ('A' for Active; 'I' for Inactive)
REMARK    1  A    between atoms: C1_1  and  C2_2
REMARK    2  A    between atoms: C4_4  and  O1_5
REMARK    3  A    between atoms: O1_5  and  C5_6
REMARK    4  A    between atoms: C8_10  and  N2_11
REMARK    5  A    between atoms: N2_11  and  C9_12
REMARK    6  A    between atoms: C13_16  and  N3_17
REMARK    7  A    between atoms: C20_25  and  C21_26
REMARK    8  A    between atoms: C26_33  and  C27_34
REMARK                            x       y       z     vdW  Elec       q    Type
REMARK                         _______ _______ _______ _____ _____    ______ ____
ROOT
ATOM      1  C5  CHE B   04      1.000  -1.730   7.000  0.00  0.00    +0.133 A 
ATOM      2  C6  CHE B   04      1.000  -1.620   5.000  0.00  0.00    +0.066 A 
ATOM      3  C7  CHE B   04      1.000  -0.460   0.000  0.00  0.00    +0.116 A 
ATOM      4  N1  CHE B   04      1.000   0.550   7.000  0.00  0.00    -0.240 NA
ATOM      5  C8  CHE B   04      1.000   0.470   1.000  0.00  0.00    +0.126 A 
ATOM      6  C19 CHE B   04      1.000  -0.670   6.000  0.00  0.00    +0.090 A 
ENDROOT
BRANCH   5   7
ATOM      7  N2  CHE B   04      1.000   1.670   2.000  0.00  0.00    -0.299 N 
ATOM      8  H7  CHE B   04      1.000   1.760   5.000  0.00  0.00    +0.154 HD
BRANCH   7   9
ATOM      9  C9  CHE B   04      1.000   2.760   0.000  0.00  0.00    +0.034 A 
ATOM     10  C10 CHE B   04      1.000   2.510   8.000  0.00  0.00    +0.023 A 
ATOM     11  C11 CHE B   04      1.000   3.540   0.000  0.00  0.00    +0.004 A 
ATOM     12  C12 CHE B   04      1.000   4.810   6.000  0.00  0.00    +0.023 A 
ATOM     13  C13 CHE B   04      1.000   5.070   5.000  0.00  0.00    +0.032 A 
ATOM     14  C18 CHE B   04      1.000   4.030   1.000  0.00  0.00    +0.046 A 
BRANCH  13  15
ATOM     15  N3  CHE B   04      1.000   6.400   8.000  0.00  0.00    -0.325 N 
ATOM     16  C14 CHE B   04      1.000   7.400   3.000  0.00  0.00    +0.133 C 
ATOM     17  C15 CHE B   04      1.000   8.740   6.000  0.00  0.00    +0.178 C 
ATOM     18  O2  CHE B   04      1.000   8.700   8.000  0.00  0.00    -0.377 OA
ATOM     19  C16 CHE B   04      1.000   7.830   2.000  0.00  0.00    +0.178 C 
ATOM     20  C17 CHE B   04      1.000   6.770   5.000  0.00  0.00    +0.133 C 
ENDBRANCH  13  15
ENDBRANCH   7   9
ENDBRANCH   5   7
BRANCH   1  21
ATOM     21  O1  CHE B   04      1.000  -2.960   1.000  0.00  0.00    -0.454 OA
BRANCH  21  25
ATOM     22  C1  CHE B   04      1.000  -5.390   6.000  0.00  0.00    +0.046 C 
ATOM     23  C2  CHE B   04      1.000  -5.310   5.000  0.00  0.00    -0.026 A 
ATOM     24  C3  CHE B   04      1.000  -4.110   7.000  0.00  0.00    +0.053 A 
ATOM     25  C4  CHE B   04      1.000  -4.070   8.000  0.00  0.00    +0.156 A 
ATOM     26  C20 CHE B   04      1.000  -5.220   1.000  0.00  0.00    +0.131 A 
ATOM     27  N5  CHE B   04      1.000  -6.350   8.000  0.00  0.00    -0.246 NA
ATOM     28  C26 CHE B   04      1.000  -6.450   0.000  0.00  0.00    +0.042 A 
ATOM     29  C27 CHE B   04      1.000  -7.710   8.000  0.00  0.00    +0.066 C 
BRANCH  26  30
ATOM     30  C21 CHE B   04      1.000  -5.240   8.000  0.00  0.00    +0.093 A 
ATOM     31  C22 CHE B   04      1.000  -4.180   8.000  0.00  0.00    +0.030 A 
ATOM     32  C23 CHE B   04      1.000  -4.170   9.000  0.00  0.00    +0.004 A 
ATOM     33  C24 CHE B   04      1.000  -5.240   1.000  0.00  0.00    +0.020 A 
ATOM     34  C25 CHE B   04      1.000  -6.270   0.000  0.00  0.00    +0.111 A 
ATOM     35  N4  CHE B   04      1.000  -6.240   0.000  0.00  0.00    -0.253 NA
ENDBRANCH  26  30
ENDBRANCH  21  25
ENDBRANCH   1  21
TORSDOF 6
