REMARK  Name = dock_mp/CHEMBL5/CHEMBL560415.pdb
REMARK  5 active torsions:
REMARK  status: ('A' for Active; 'I' for Inactive)
REMARK    1  A    between atoms: C1_1  and  C2_2
REMARK    2  A    between atoms: C6_6  and  C7_7
REMARK    3  A    between atoms: C8_9  and  N2_10
REMARK    4  A    between atoms: N2_10  and  C9_11
REMARK    5  A    between atoms: C12_15  and  C13_16
REMARK                            x       y       z     vdW  Elec       q    Type
REMARK                         _______ _______ _______ _____ _____    ______ ____
ROOT
ATOM      1  C7  CHE B   04      1.000   1.460   4.000  0.00  0.00    +0.181 A 
ATOM      2  N1  CHE B   04      1.000   0.260   5.000  0.00  0.00    -0.210 NA
ATOM      3  C8  CHE B   04      1.000  -0.630   8.000  0.00  0.00    +0.135 A 
ATOM      4  C15 CHE B   04      1.000  -0.320   8.000  0.00  0.00    +0.040 A 
ATOM      5  C16 CHE B   04      1.000  -1.230   7.000  0.00  0.00    +0.013 A 
ATOM      6  C17 CHE B   04      1.000  -0.840   8.000  0.00  0.00    +0.001 A 
ATOM      7  C18 CHE B   04      1.000   0.380   7.000  0.00  0.00    +0.002 A 
ATOM      8  C19 CHE B   04      1.000   1.270   9.000  0.00  0.00    +0.028 A 
ATOM      9  C20 CHE B   04      1.000   0.920   0.000  0.00  0.00    +0.077 A 
ATOM     10  N4  CHE B   04      1.000   1.760   9.000  0.00  0.00    -0.226 NA
ENDROOT
BRANCH   1  16
ATOM     11  C1  CHE B   04      1.000   5.780   5.000  0.00  0.00    +0.065 C 
ATOM     12  C2  CHE B   04      1.000   4.480   8.000  0.00  0.00    +0.039 A 
ATOM     13  C3  CHE B   04      1.000   4.210   1.000  0.00  0.00    +0.023 A 
ATOM     14  C4  CHE B   04      1.000   2.990   4.000  0.00  0.00    +0.004 A 
ATOM     15  C5  CHE B   04      1.000   2.090   3.000  0.00  0.00    +0.031 A 
ATOM     16  C6  CHE B   04      1.000   2.410   3.000  0.00  0.00    +0.108 A 
ATOM     17  N5  CHE B   04      1.000   3.580   2.000  0.00  0.00    -0.249 NA
ENDBRANCH   1  16
BRANCH   3  18
ATOM     18  N2  CHE B   04      1.000  -1.860   0.000  0.00  0.00    -0.299 N 
ATOM     19  H7  CHE B   04      1.000  -2.020   2.000  0.00  0.00    +0.154 HD
BRANCH  18  20
ATOM     20  C9  CHE B   04      1.000  -2.850   5.000  0.00  0.00    +0.036 A 
ATOM     21  C10 CHE B   04      1.000  -3.590   3.000  0.00  0.00    +0.043 A 
ATOM     22  C11 CHE B   04      1.000  -4.540   1.000  0.00  0.00    +0.113 A 
ATOM     23  N3  CHE B   04      1.000  -4.700   9.000  0.00  0.00    -0.260 NA
ATOM     24  C12 CHE B   04      1.000  -4.000   0.000  0.00  0.00    +0.040 A 
ATOM     25  C13 CHE B   04      1.000  -4.280   4.000  0.00  0.00    +0.065 C 
ATOM     26  C14 CHE B   04      1.000  -3.060   1.000  0.00  0.00    +0.046 A 
ENDBRANCH  18  20
ENDBRANCH   3  18
TORSDOF 3
