REMARK  Name = dock_mp/CHEMBL5/CHEMBL500149.pdb
REMARK  10 active torsions:
REMARK  status: ('A' for Active; 'I' for Inactive)
REMARK    1  A    between atoms: C1_1  and  O1_2
REMARK    2  A    between atoms: O1_2  and  C2_3
REMARK    3  A    between atoms: C7_9  and  O2_10
REMARK    4  A    between atoms: O2_10  and  C8_11
REMARK    5  A    between atoms: C10_13  and  C11_14
REMARK    6  A    between atoms: C12_15  and  C13_16
REMARK    7  A    between atoms: C15_18  and  C16_19
REMARK    8  A    between atoms: C16_19  and  C17_21
REMARK    9  A    between atoms: C20_24  and  O4_25
REMARK   10  A    between atoms: O4_25  and  C21_26
REMARK                            x       y       z     vdW  Elec       q    Type
REMARK                         _______ _______ _______ _____ _____    ______ ____
ROOT
ATOM      1  C2  CHE B   01      1.000   4.260   6.000  0.00  0.00    +0.164 A 
ATOM      2  C3  CHE B   01      1.000   3.330   4.000  0.00  0.00    +0.077 A 
ATOM      3  C4  CHE B   01      1.000   1.980   2.000  0.00  0.00    +0.078 A 
ATOM      4  N1  CHE B   01      1.000   1.070   3.000  0.00  0.00    -0.255 NA
ATOM      5  C5  CHE B   01      1.000  -0.240   3.000  0.00  0.00    +0.115 A 
ATOM      6  C6  CHE B   01      1.000  -0.690   8.000  0.00  0.00    +0.066 A 
ATOM      7  C7  CHE B   01      1.000   0.180   3.000  0.00  0.00    +0.139 A 
ATOM      8  C18 CHE B   01      1.000   1.540   4.000  0.00  0.00    +0.046 A 
ATOM      9  C19 CHE B   01      1.000   2.480   7.000  0.00  0.00    +0.063 A 
ATOM     10  C20 CHE B   01      1.000   3.840   1.000  0.00  0.00    +0.162 A 
ENDROOT
BRANCH   1  12
ATOM     11  C1  CHE B   01      1.000   6.060   2.000  0.00  0.00    +0.277 C 
ATOM     12  O1  CHE B   01      1.000   5.620   8.000  0.00  0.00    -0.491 OA
ENDBRANCH   1  12
BRANCH  10  13
ATOM     13  O4  CHE B   01      1.000   4.790   8.000  0.00  0.00    -0.491 OA
ATOM     14  C21 CHE B   01      1.000   4.380   4.000  0.00  0.00    +0.277 C 
ENDBRANCH  10  13
BRANCH   7  15
ATOM     15  O2  CHE B   01      1.000  -0.140   2.000  0.00  0.00    -0.455 OA
BRANCH  15  16
ATOM     16  C8  CHE B   01      1.000  -1.430   1.000  0.00  0.00    +0.139 A 
ATOM     17  C9  CHE B   01      1.000  -1.950   3.000  0.00  0.00    +0.050 A 
ATOM     18  C10 CHE B   01      1.000  -3.230   3.000  0.00  0.00    -0.044 A 
ATOM     19  C11 CHE B   01      1.000  -3.770   9.000  0.00  0.00    +0.044 C 
ATOM     20  C12 CHE B   01      1.000  -3.970   3.000  0.00  0.00    -0.047 A 
ATOM     21  C13 CHE B   01      1.000  -5.350   5.000  0.00  0.00    +0.044 C 
ATOM     22  C14 CHE B   01      1.000  -3.450   9.000  0.00  0.00    +0.018 A 
ATOM     23  C15 CHE B   01      1.000  -2.160   7.000  0.00  0.00    +0.060 A 
BRANCH  23  24
ATOM     24  C16 CHE B   01      1.000  -1.660   3.000  0.00  0.00    +0.164 C 
ATOM     25  O3  CHE B   01      1.000  -0.490   9.000  0.00  0.00    -0.292 OA
ATOM     26  C17 CHE B   01      1.000  -2.600   5.000  0.00  0.00    +0.092 C 
ENDBRANCH  23  24
ENDBRANCH  15  16
ENDBRANCH   7  15
TORSDOF 5
