REMARK  Name = dock_mp/CHEMBL5/CHEMBL566234.pdb
REMARK  6 active torsions:
REMARK  status: ('A' for Active; 'I' for Inactive)
REMARK    1  A    between atoms: C4_5  and  N1_6
REMARK    2  A    between atoms: N1_6  and  C5_7
REMARK    3  A    between atoms: C5_7  and  C6_8
REMARK    4  A    between atoms: C9_11  and  C10_12
REMARK    5  A    between atoms: C12_14  and  C13_15
REMARK    6  A    between atoms: C15_19  and  C16_20
REMARK                            x       y       z     vdW  Elec       q    Type
REMARK                         _______ _______ _______ _____ _____    ______ ____
ROOT
ATOM      1  C10 CHE B   02      1.000  -1.610   4.000  0.00  0.00    +0.072 A 
ATOM      2  C11 CHE B   02      1.000  -2.430   6.000  0.00  0.00    +0.037 A 
ATOM      3  C12 CHE B   02      1.000  -3.770   4.000  0.00  0.00    -0.011 A 
ATOM      4  C21 CHE B   02      1.000  -4.270   7.000  0.00  0.00    +0.028 A 
ATOM      5  C22 CHE B   02      1.000  -3.420   6.000  0.00  0.00    +0.112 A 
ATOM      6  N5  CHE B   02      1.000  -2.110   8.000  0.00  0.00    -0.255 NA
ENDROOT
BRANCH   1  10
ATOM      7  C6  CHE B   02      1.000   2.510   6.000  0.00  0.00    -0.064 A 
ATOM      8  C7  CHE B   02      1.000   1.860   8.000  0.00  0.00    +0.002 A 
ATOM      9  C8  CHE B   02      1.000   0.510   5.000  0.00  0.00    +0.010 A 
ATOM     10  C9  CHE B   02      1.000  -0.200   5.000  0.00  0.00    +0.000 A 
ATOM     11  C23 CHE B   02      1.000   0.440   5.000  0.00  0.00    +0.010 A 
ATOM     12  C24 CHE B   02      1.000   1.770   6.000  0.00  0.00    +0.002 A 
BRANCH   7  13
ATOM     13  C5  CHE B   02      1.000   3.970   5.000  0.00  0.00    -0.046 C 
BRANCH  13  14
ATOM     14  N1  CHE B   02      1.000   4.800   3.000  0.00  0.00    +0.385 N 
ATOM     15  H8  CHE B   02      1.000   5.340   6.000  0.00  0.00    -0.085 HD
ATOM     16  H9  CHE B   02      1.000   4.180   6.000  0.00  0.00    -0.085 HD
BRANCH  14  21
ATOM     17  C1  CHE B   02      1.000   7.680   9.000  0.00  0.00    +0.026 C 
ATOM     18  C2  CHE B   02      1.000   6.670   3.000  0.00  0.00    +0.159 C 
ATOM     19  O1  CHE B   02      1.000   5.470   5.000  0.00  0.00    -0.381 OA
ATOM     20  C3  CHE B   02      1.000   5.380   3.000  0.00  0.00    +0.144 C 
ATOM     21  C4  CHE B   02      1.000   5.750   0.000  0.00  0.00    -0.045 C 
ATOM     22  C25 CHE B   02      1.000   7.100   0.000  0.00  0.00    -0.011 C 
ENDBRANCH  14  21
ENDBRANCH  13  14
ENDBRANCH   7  13
ENDBRANCH   1  10
BRANCH   3  23
ATOM     23  C13 CHE B   02      1.000  -4.590   5.000  0.00  0.00    +0.029 A 
ATOM     24  C14 CHE B   02      1.000  -4.360   0.000  0.00  0.00    +0.114 A 
ATOM     25  N2  CHE B   02      1.000  -5.330   6.000  0.00  0.00    -0.284 N 
ATOM     26  N3  CHE B   02      1.000  -6.140   5.000  0.00  0.00    -0.172 NA
ATOM     27  C15 CHE B   02      1.000  -5.710   5.000  0.00  0.00    +0.118 A 
ATOM     28  H16 CHE B   02      1.000  -5.490   0.000  0.00  0.00    +0.188 HD
BRANCH  27  29
ATOM     29  C16 CHE B   02      1.000  -6.340   1.000  0.00  0.00    +0.091 A 
ATOM     30  C17 CHE B   02      1.000  -7.650   1.000  0.00  0.00    +0.030 A 
ATOM     31  C18 CHE B   02      1.000  -8.320   3.000  0.00  0.00    +0.004 A 
ATOM     32  C19 CHE B   02      1.000  -7.630   7.000  0.00  0.00    +0.020 A 
ATOM     33  C20 CHE B   02      1.000  -6.330   7.000  0.00  0.00    +0.111 A 
ATOM     34  N4  CHE B   02      1.000  -5.700   6.000  0.00  0.00    -0.253 NA
ENDBRANCH  27  29
ENDBRANCH   3  23
TORSDOF 6
