REMARK  Name = dock_mp/CHEMBL5/CHEMBL575492.pdb
REMARK  9 active torsions:
REMARK  status: ('A' for Active; 'I' for Inactive)
REMARK    1  A    between atoms: C1_1  and  O1_2
REMARK    2  A    between atoms: O1_2  and  C2_3
REMARK    3  A    between atoms: C7_8  and  N1_9
REMARK    4  A    between atoms: N1_9  and  C8_10
REMARK    5  A    between atoms: C10_12  and  O2_13
REMARK    6  A    between atoms: O2_13  and  C11_14
REMARK    7  A    between atoms: C13_16  and  C14_17
REMARK    8  A    between atoms: C15_18  and  C16_19
REMARK    9  A    between atoms: C17_21  and  C18_22
REMARK                            x       y       z     vdW  Elec       q    Type
REMARK                         _______ _______ _______ _____ _____    ______ ____
ROOT
ATOM      1  C8  CHE B   04      1.000   2.040   2.000  0.00  0.00    +0.126 A 
ATOM      2  C9  CHE B   04      1.000   0.860   5.000  0.00  0.00    +0.090 A 
ATOM      3  C10 CHE B   04      1.000  -0.110   4.000  0.00  0.00    +0.133 A 
ATOM      4  C23 CHE B   04      1.000   0.120   9.000  0.00  0.00    +0.066 A 
ATOM      5  C24 CHE B   04      1.000   1.290   5.000  0.00  0.00    +0.116 A 
ATOM      6  N4  CHE B   04      1.000   2.210   0.000  0.00  0.00    -0.240 NA
ENDROOT
BRANCH   1   7
ATOM      7  N1  CHE B   04      1.000   3.060   1.000  0.00  0.00    -0.297 N 
ATOM      8  H8  CHE B   04      1.000   3.040   5.000  0.00  0.00    +0.154 HD
BRANCH   7  14
ATOM      9  C2  CHE B   04      1.000   5.160   1.000  0.00  0.00    +0.141 A 
ATOM     10  C3  CHE B   04      1.000   6.120   2.000  0.00  0.00    +0.047 A 
ATOM     11  C4  CHE B   04      1.000   6.070   0.000  0.00  0.00    +0.004 A 
ATOM     12  C5  CHE B   04      1.000   5.040   9.000  0.00  0.00    +0.002 A 
ATOM     13  C6  CHE B   04      1.000   4.070   1.000  0.00  0.00    +0.027 A 
ATOM     14  C7  CHE B   04      1.000   4.110   3.000  0.00  0.00    +0.075 A 
BRANCH   9  16
ATOM     15  C1  CHE B   04      1.000   6.100   2.000  0.00  0.00    +0.277 C 
ATOM     16  O1  CHE B   04      1.000   5.150   3.000  0.00  0.00    -0.493 OA
ENDBRANCH   9  16
ENDBRANCH   7  14
ENDBRANCH   1   7
BRANCH   3  17
ATOM     17  O2  CHE B   04      1.000  -1.240   2.000  0.00  0.00    -0.454 OA
BRANCH  17  18
ATOM     18  C11 CHE B   04      1.000  -2.380   8.000  0.00  0.00    +0.156 A 
ATOM     19  C12 CHE B   04      1.000  -2.500   2.000  0.00  0.00    +0.053 A 
ATOM     20  C13 CHE B   04      1.000  -3.700   8.000  0.00  0.00    -0.026 A 
ATOM     21  C14 CHE B   04      1.000  -3.890   6.000  0.00  0.00    +0.046 C 
ATOM     22  C15 CHE B   04      1.000  -4.770   0.000  0.00  0.00    +0.042 A 
ATOM     23  C16 CHE B   04      1.000  -6.040   7.000  0.00  0.00    +0.066 C 
ATOM     24  N2  CHE B   04      1.000  -4.590   0.000  0.00  0.00    -0.246 NA
ATOM     25  C17 CHE B   04      1.000  -3.450   8.000  0.00  0.00    +0.131 A 
BRANCH  25  26
ATOM     26  C18 CHE B   04      1.000  -3.300   3.000  0.00  0.00    +0.093 A 
ATOM     27  C19 CHE B   04      1.000  -4.270   1.000  0.00  0.00    +0.030 A 
ATOM     28  C20 CHE B   04      1.000  -4.010   3.000  0.00  0.00    +0.004 A 
ATOM     29  C21 CHE B   04      1.000  -2.800   2.000  0.00  0.00    +0.020 A 
ATOM     30  C22 CHE B   04      1.000  -1.870   5.000  0.00  0.00    +0.111 A 
ATOM     31  N3  CHE B   04      1.000  -2.120   9.000  0.00  0.00    -0.253 NA
ENDBRANCH  25  26
ENDBRANCH  17  18
ENDBRANCH   3  17
TORSDOF 6
