REMARK  Name = dock_mp/CHEMBL5/CHEMBL520104.pdb
REMARK  3 active torsions:
REMARK  status: ('A' for Active; 'I' for Inactive)
REMARK    1  A    between atoms: C1_1  and  C2_2
REMARK    2  A    between atoms: C3_4  and  C4_5
REMARK    3  A    between atoms: C10_15  and  C11_16
REMARK                            x       y       z     vdW  Elec       q    Type
REMARK                         _______ _______ _______ _____ _____    ______ ____
ROOT
ATOM      1  C4  CHE B   01      1.000   0.240   6.000  0.00  0.00    +0.117 A 
ATOM      2  N2  CHE B   01      1.000  -0.910   3.000  0.00  0.00    -0.212 NA
ATOM      3  C5  CHE B   01      1.000  -1.900   3.000  0.00  0.00    +0.197 A 
ATOM      4  N3  CHE B   01      1.000  -3.260   1.000  0.00  0.00    -0.297 N 
ATOM      5  C6  CHE B   01      1.000  -3.920   7.000  0.00  0.00    +0.136 C 
ATOM      6  C7  CHE B   01      1.000  -5.320   9.000  0.00  0.00    +0.179 C 
ATOM      7  O1  CHE B   01      1.000  -5.950   4.000  0.00  0.00    -0.377 OA
ATOM      8  C8  CHE B   01      1.000  -5.430   5.000  0.00  0.00    +0.179 C 
ATOM      9  C9  CHE B   01      1.000  -3.950   6.000  0.00  0.00    +0.136 C 
ATOM     10  N4  CHE B   01      1.000  -1.330   4.000  0.00  0.00    -0.325 N 
ATOM     11  C10 CHE B   01      1.000  -0.010   3.000  0.00  0.00    +0.078 A 
ATOM     12  H12 CHE B   01      1.000  -1.920   3.000  0.00  0.00    +0.169 HD
ENDROOT
BRANCH  11  13
ATOM     13  C11 CHE B   01      1.000   0.870   7.000  0.00  0.00    +0.019 A 
ATOM     14  C12 CHE B   01      1.000   1.700   7.000  0.00  0.00    +0.015 A 
ATOM     15  C13 CHE B   01      1.000   2.520   5.000  0.00  0.00    +0.049 A 
ATOM     16  C14 CHE B   01      1.000   2.530   0.000  0.00  0.00    +0.156 A 
ATOM     17  N5  CHE B   01      1.000   3.190   0.000  0.00  0.00    -0.215 NA
ATOM     18  C15 CHE B   01      1.000   2.780   3.000  0.00  0.00    +0.246 A 
ATOM     19  N6  CHE B   01      1.000   1.880   1.000  0.00  0.00    -0.154 NA
ATOM     20  N7  CHE B   01      1.000   1.710   9.000  0.00  0.00    -0.220 N 
ATOM     21  C16 CHE B   01      1.000   0.900   4.000  0.00  0.00    +0.124 A 
ENDBRANCH  11  13
BRANCH   1  25
ATOM     22  C1  CHE B   01      1.000   4.850   1.000  0.00  0.00    +0.068 C 
ATOM     23  C2  CHE B   01      1.000   3.690   6.000  0.00  0.00    +0.074 A 
ATOM     24  N1  CHE B   01      1.000   2.540   1.000  0.00  0.00    -0.247 NA
ATOM     25  C3  CHE B   01      1.000   1.510   9.000  0.00  0.00    +0.092 A 
ATOM     26  C17 CHE B   01      1.000   1.630   6.000  0.00  0.00    +0.033 A 
ATOM     27  C18 CHE B   01      1.000   2.770   3.000  0.00  0.00    +0.042 A 
ATOM     28  C19 CHE B   01      1.000   3.820   1.000  0.00  0.00    +0.144 A 
ATOM     29  F1  CHE B   01      1.000   4.950   3.000  0.00  0.00    -0.204 F 
ENDBRANCH   1  25
TORSDOF 2
