REMARK  Name = dock_mp/CHEMBL5/CHEMBL574415.pdb
REMARK  12 active torsions:
REMARK  status: ('A' for Active; 'I' for Inactive)
REMARK    1  A    between atoms: C1_1  and  O1_2
REMARK    2  A    between atoms: O1_2  and  C2_3
REMARK    3  A    between atoms: C4_5  and  N1_6
REMARK    4  A    between atoms: N1_6  and  C5_7
REMARK    5  A    between atoms: C7_9  and  O2_10
REMARK    6  A    between atoms: O2_10  and  C8_11
REMARK    7  A    between atoms: C11_14  and  C12_15
REMARK    8  A    between atoms: C13_17  and  C14_18
REMARK    9  A    between atoms: C18_23  and  O3_24
REMARK   10  A    between atoms: O3_24  and  C19_25
REMARK   11  A    between atoms: C20_26  and  O4_27
REMARK   12  A    between atoms: O4_27  and  C21_28
REMARK                            x       y       z     vdW  Elec       q    Type
REMARK                         _______ _______ _______ _____ _____    ______ ____
ROOT
ATOM      1  C5  CHE B   04      1.000  -0.050   5.000  0.00  0.00    +0.126 A 
ATOM      2  C6  CHE B   04      1.000   1.050   4.000  0.00  0.00    +0.090 A 
ATOM      3  C7  CHE B   04      1.000   2.210   0.000  0.00  0.00    +0.133 A 
ATOM      4  C15 CHE B   04      1.000   2.220   7.000  0.00  0.00    +0.066 A 
ATOM      5  C16 CHE B   04      1.000   1.120   8.000  0.00  0.00    +0.116 A 
ATOM      6  N3  CHE B   04      1.000   0.030   7.000  0.00  0.00    -0.240 NA
ENDROOT
BRANCH   1   7
ATOM      7  N1  CHE B   04      1.000  -1.210   6.000  0.00  0.00    -0.299 N 
ATOM      8  H5  CHE B   04      1.000  -1.100   5.000  0.00  0.00    +0.154 HD
BRANCH   7  11
ATOM      9  C2  CHE B   04      1.000  -3.970   7.000  0.00  0.00    +0.167 A 
ATOM     10  C3  CHE B   04      1.000  -2.740   4.000  0.00  0.00    +0.073 A 
ATOM     11  C4  CHE B   04      1.000  -2.540   0.000  0.00  0.00    +0.040 A 
ATOM     12  C17 CHE B   04      1.000  -3.650   5.000  0.00  0.00    +0.073 A 
ATOM     13  C18 CHE B   04      1.000  -4.920   1.000  0.00  0.00    +0.167 A 
ATOM     14  C20 CHE B   04      1.000  -5.100   1.000  0.00  0.00    +0.204 A 
BRANCH   9  16
ATOM     15  C1  CHE B   04      1.000  -3.120   9.000  0.00  0.00    +0.277 C 
ATOM     16  O1  CHE B   04      1.000  -4.200   4.000  0.00  0.00    -0.491 OA
ENDBRANCH   9  16
BRANCH  13  17
ATOM     17  O3  CHE B   04      1.000  -6.080   3.000  0.00  0.00    -0.491 OA
ATOM     18  C19 CHE B   04      1.000  -6.110   3.000  0.00  0.00    +0.277 C 
ENDBRANCH  13  17
BRANCH  14  19
ATOM     19  O4  CHE B   04      1.000  -6.360   0.000  0.00  0.00    -0.488 OA
ATOM     20  C21 CHE B   04      1.000  -7.120   4.000  0.00  0.00    +0.277 C 
ENDBRANCH  14  19
ENDBRANCH   7  11
ENDBRANCH   1   7
BRANCH   3  21
ATOM     21  O2  CHE B   04      1.000   3.350   2.000  0.00  0.00    -0.454 OA
BRANCH  21  22
ATOM     22  C8  CHE B   04      1.000   4.540   1.000  0.00  0.00    +0.149 A 
ATOM     23  C9  CHE B   04      1.000   5.160   0.000  0.00  0.00    +0.050 A 
ATOM     24  C10 CHE B   04      1.000   6.360   5.000  0.00  0.00    +0.026 A 
ATOM     25  C11 CHE B   04      1.000   6.880   1.000  0.00  0.00    +0.039 A 
ATOM     26  C12 CHE B   04      1.000   8.170   2.000  0.00  0.00    +0.065 C 
ATOM     27  N2  CHE B   04      1.000   6.280   8.000  0.00  0.00    -0.253 NA
ATOM     28  C13 CHE B   04      1.000   5.110   3.000  0.00  0.00    +0.081 A 
ATOM     29  C14 CHE B   04      1.000   4.570   0.000  0.00  0.00    +0.069 C 
ENDBRANCH  21  22
ENDBRANCH   3  21
TORSDOF 7
