REMARK  Name = dock_mp/CHEMBL5/CHEMBL519939.pdb
REMARK  4 active torsions:
REMARK  status: ('A' for Active; 'I' for Inactive)
REMARK    1  A    between atoms: C1_1  and  C2_2
REMARK    2  A    between atoms: C4_7  and  C5_8
REMARK    3  A    between atoms: C9_13  and  C10_14
REMARK    4  A    between atoms: C11_16  and  C12_17
REMARK                            x       y       z     vdW  Elec       q    Type
REMARK                         _______ _______ _______ _____ _____    ______ ____
ROOT
ATOM      1  C1  CHE B   09      1.000  -4.260   5.000  0.00  0.00    +0.109 C 
ATOM      2  C2  CHE B   09      1.000  -3.230   5.000  0.00  0.00    +0.216 C 
ATOM      3  O1  CHE B   09      1.000  -2.140   4.000  0.00  0.00    -0.276 OA
ATOM      4  N1  CHE B   09      1.000  -3.440   2.000  0.00  0.00    -0.256 N 
ATOM      5  C3  CHE B   09      1.000  -2.400   6.000  0.00  0.00    +0.200 A 
ATOM      6  N2  CHE B   09      1.000  -2.470   7.000  0.00  0.00    -0.212 NA
ATOM      7  C4  CHE B   09      1.000  -1.330   0.000  0.00  0.00    +0.117 A 
ATOM      8  C11 CHE B   09      1.000  -0.540   0.000  0.00  0.00    +0.077 A 
ATOM      9  N6  CHE B   09      1.000  -1.200   5.000  0.00  0.00    -0.325 N 
ATOM     10  H4  CHE B   09      1.000  -4.330   7.000  0.00  0.00    +0.158 HD
ATOM     11  H15 CHE B   09      1.000  -0.870   8.000  0.00  0.00    +0.169 HD
ENDROOT
BRANCH   8  12
ATOM     12  C12 CHE B   09      1.000   0.790   8.000  0.00  0.00    +0.003 A 
ATOM     13  C13 CHE B   09      1.000   1.900   7.000  0.00  0.00    +0.012 A 
ATOM     14  C14 CHE B   09      1.000   3.100   4.000  0.00  0.00    +0.030 A 
ATOM     15  C15 CHE B   09      1.000   3.260   5.000  0.00  0.00    +0.089 A 
ATOM     16  N4  CHE B   09      1.000   4.480   0.000  0.00  0.00    -0.252 NA
ATOM     17  C16 CHE B   09      1.000   4.600   1.000  0.00  0.00    +0.131 A 
ATOM     18  C17 CHE B   09      1.000   3.490   1.000  0.00  0.00    +0.131 A 
ATOM     19  N5  CHE B   09      1.000   2.270   2.000  0.00  0.00    -0.252 NA
ATOM     20  C18 CHE B   09      1.000   2.140   8.000  0.00  0.00    +0.090 A 
ATOM     21  C19 CHE B   09      1.000   0.930   8.000  0.00  0.00    +0.040 A 
ENDBRANCH   8  12
BRANCH   7  22
ATOM     22  C5  CHE B   09      1.000  -0.990   7.000  0.00  0.00    +0.092 A 
ATOM     23  C6  CHE B   09      1.000  -1.660   0.000  0.00  0.00    +0.033 A 
ATOM     24  C7  CHE B   09      1.000  -1.370   6.000  0.00  0.00    +0.042 A 
ATOM     25  C8  CHE B   09      1.000  -0.360   3.000  0.00  0.00    +0.144 A 
ATOM     26  F1  CHE B   09      1.000  -0.060   4.000  0.00  0.00    -0.204 F 
ATOM     27  C9  CHE B   09      1.000   0.310   5.000  0.00  0.00    +0.074 A 
ATOM     28  C10 CHE B   09      1.000   1.380   3.000  0.00  0.00    +0.068 C 
ATOM     29  N3  CHE B   09      1.000  -0.030   0.000  0.00  0.00    -0.247 NA
ENDBRANCH   7  22
TORSDOF 2
