REMARK  Name = dock_mp/CHEMBL5/CHEMBL583549.pdb
REMARK  4 active torsions:
REMARK  status: ('A' for Active; 'I' for Inactive)
REMARK    1  A    between atoms: C1_2  and  C2_4
REMARK    2  A    between atoms: C5_7  and  C6_8
REMARK    3  A    between atoms: C7_10  and  C8_11
REMARK    4  A    between atoms: C15_20  and  C16_21
REMARK                            x       y       z     vdW  Elec       q    Type
REMARK                         _______ _______ _______ _____ _____    ______ ____
ROOT
ATOM      1  C6  CHE B   05      1.000   1.690   9.000  0.00  0.00    +0.139 A 
ATOM      2  N1  CHE B   05      1.000   0.610   7.000  0.00  0.00    -0.227 NA
ATOM      3  C7  CHE B   05      1.000  -0.500   3.000  0.00  0.00    +0.095 A 
ATOM      4  C15 CHE B   05      1.000  -0.080   9.000  0.00  0.00    +0.092 A 
ATOM      5  N3  CHE B   05      1.000   1.270   9.000  0.00  0.00    -0.336 N 
ATOM      6  H14 CHE B   05      1.000   1.960   7.000  0.00  0.00    +0.167 HD
ENDROOT
BRANCH   3   7
ATOM      7  C8  CHE B   05      1.000  -1.810   2.000  0.00  0.00    -0.017 C 
ATOM      8  C9  CHE B   05      1.000  -2.810   0.000  0.00  0.00    +0.009 C 
ATOM      9  C10 CHE B   05      1.000  -4.120   0.000  0.00  0.00    +0.044 C 
ATOM     10  C11 CHE B   05      1.000  -4.290   6.000  0.00  0.00    +0.130 C 
ATOM     11  O3  CHE B   05      1.000  -5.380   3.000  0.00  0.00    -0.468 OA
ATOM     12  C12 CHE B   05      1.000  -4.730   9.000  0.00  0.00    +0.395 C 
ATOM     13  O4  CHE B   05      1.000  -3.350   1.000  0.00  0.00    -0.333 OA
ATOM     14  C13 CHE B   05      1.000  -3.280   0.000  0.00  0.00    +0.191 C 
ATOM     15  C14 CHE B   05      1.000  -1.950   8.000  0.00  0.00    +0.077 C 
ENDBRANCH   3   7
BRANCH   1  19
ATOM     16  C2  CHE B   05      1.000   5.680   9.000  0.00  0.00    +0.063 A 
ATOM     17  C3  CHE B   05      1.000   5.390   4.000  0.00  0.00    +0.016 A 
ATOM     18  C4  CHE B   05      1.000   4.080   5.000  0.00  0.00    +0.012 A 
ATOM     19  C5  CHE B   05      1.000   3.050   4.000  0.00  0.00    +0.017 A 
ATOM     20  C21 CHE B   05      1.000   3.350   1.000  0.00  0.00    +0.012 A 
ATOM     21  C22 CHE B   05      1.000   4.650   8.000  0.00  0.00    +0.016 A 
BRANCH  16  23
ATOM     22  O1  CHE B   05      1.000   8.090   7.000  0.00  0.00    -0.241 OA
ATOM     23  C1  CHE B   05      1.000   7.060   4.000  0.00  0.00    +0.387 C 
ATOM     24  O2  CHE B   05      1.000   7.370   4.000  0.00  0.00    -0.241 OA
ENDBRANCH  16  23
ENDBRANCH   1  19
BRANCH   4  25
ATOM     25  C16 CHE B   05      1.000  -0.760   4.000  0.00  0.00    +0.089 A 
ATOM     26  C17 CHE B   05      1.000  -2.080   7.000  0.00  0.00    +0.030 A 
ATOM     27  C18 CHE B   05      1.000  -2.600   7.000  0.00  0.00    +0.004 A 
ATOM     28  C19 CHE B   05      1.000  -1.730   3.000  0.00  0.00    +0.020 A 
ATOM     29  C20 CHE B   05      1.000  -0.400   3.000  0.00  0.00    +0.111 A 
ATOM     30  N2  CHE B   05      1.000   0.050   1.000  0.00  0.00    -0.253 NA
ENDBRANCH   4  25
TORSDOF 4
