REMARK  Name = dock_mp/CHEMBL5/CHEMBL564250.pdb
REMARK  5 active torsions:
REMARK  status: ('A' for Active; 'I' for Inactive)
REMARK    1  A    between atoms: C1_1  and  C2_2
REMARK    2  A    between atoms: C6_6  and  C7_7
REMARK    3  A    between atoms: C8_9  and  N2_10
REMARK    4  A    between atoms: N2_10  and  C9_11
REMARK    5  A    between atoms: C15_18  and  C16_19
REMARK                            x       y       z     vdW  Elec       q    Type
REMARK                         _______ _______ _______ _____ _____    ______ ____
ROOT
ATOM      1  C7  CHE B   02      1.000   1.440   9.000  0.00  0.00    +0.181 A 
ATOM      2  N1  CHE B   02      1.000   0.240   3.000  0.00  0.00    -0.210 NA
ATOM      3  C8  CHE B   02      1.000  -0.870   1.000  0.00  0.00    +0.135 A 
ATOM      4  C14 CHE B   02      1.000  -0.790   0.000  0.00  0.00    +0.051 A 
ATOM      5  C15 CHE B   02      1.000  -1.760   5.000  0.00  0.00    -0.031 A 
ATOM      6  C16 CHE B   02      1.000  -3.210   2.000  0.00  0.00    +0.045 C 
ATOM      7  C17 CHE B   02      1.000  -1.440   5.000  0.00  0.00    +0.051 A 
ATOM      8  S1  CHE B   02      1.000   0.330   4.000  0.00  0.00    -0.077 S 
ATOM      9  C18 CHE B   02      1.000   0.470   3.000  0.00  0.00    +0.114 A 
ATOM     10  N4  CHE B   02      1.000   1.550   5.000  0.00  0.00    -0.219 NA
ENDROOT
BRANCH   1  16
ATOM     11  C1  CHE B   02      1.000   6.260   6.000  0.00  0.00    +0.065 C 
ATOM     12  C2  CHE B   02      1.000   4.950   0.000  0.00  0.00    +0.039 A 
ATOM     13  C3  CHE B   02      1.000   4.810   2.000  0.00  0.00    +0.023 A 
ATOM     14  C4  CHE B   02      1.000   3.600   1.000  0.00  0.00    +0.004 A 
ATOM     15  C5  CHE B   02      1.000   2.500   1.000  0.00  0.00    +0.031 A 
ATOM     16  C6  CHE B   02      1.000   2.640   5.000  0.00  0.00    +0.108 A 
ATOM     17  N5  CHE B   02      1.000   3.850   9.000  0.00  0.00    -0.249 NA
ENDBRANCH   1  16
BRANCH   3  18
ATOM     18  N2  CHE B   02      1.000  -2.050   3.000  0.00  0.00    -0.299 N 
ATOM     19  H7  CHE B   02      1.000  -2.330   1.000  0.00  0.00    +0.154 HD
BRANCH  18  20
ATOM     20  C9  CHE B   02      1.000  -2.900   2.000  0.00  0.00    +0.035 A 
ATOM     21  C10 CHE B   02      1.000  -4.090   8.000  0.00  0.00    +0.043 A 
ATOM     22  C11 CHE B   02      1.000  -4.950   0.000  0.00  0.00    +0.112 A 
ATOM     23  N3  CHE B   02      1.000  -4.620   5.000  0.00  0.00    -0.263 NA
ATOM     24  C12 CHE B   02      1.000  -3.500   0.000  0.00  0.00    +0.112 A 
ATOM     25  C13 CHE B   02      1.000  -2.590   7.000  0.00  0.00    +0.043 A 
ENDBRANCH  18  20
ENDBRANCH   3  18
TORSDOF 3
