REMARK  Name = dock_mp/CHEMBL5/CHEMBL519948.pdb
REMARK  3 active torsions:
REMARK  status: ('A' for Active; 'I' for Inactive)
REMARK    1  A    between atoms: C1_1  and  C2_2
REMARK    2  A    between atoms: C6_6  and  C7_7
REMARK    3  A    between atoms: C9_12  and  C10_13
REMARK                            x       y       z     vdW  Elec       q    Type
REMARK                         _______ _______ _______ _____ _____    ______ ____
ROOT
ATOM      1  C7  CHE B   09      1.000  -1.470   6.000  0.00  0.00    +0.106 A 
ATOM      2  N1  CHE B   09      1.000  -2.340   4.000  0.00  0.00    -0.223 NA
ATOM      3  C8  CHE B   09      1.000  -2.160   2.000  0.00  0.00    +0.157 A 
ATOM      4  N2  CHE B   09      1.000  -2.860   5.000  0.00  0.00    -0.337 N 
ATOM      5  S1  CHE B   09      1.000  -0.290   5.000  0.00  0.00    -0.052 S 
ATOM      6  C9  CHE B   09      1.000  -0.200   3.000  0.00  0.00    +0.050 A 
ATOM      7  H7  CHE B   09      1.000  -3.580   9.000  0.00  0.00    +0.144 HD
ATOM      8  H8  CHE B   09      1.000  -2.660   2.000  0.00  0.00    +0.144 HD
ENDROOT
BRANCH   6   9
ATOM      9  C10 CHE B   09      1.000   1.030   0.000  0.00  0.00    -0.007 A 
ATOM     10  C11 CHE B   09      1.000   1.650   5.000  0.00  0.00    +0.011 A 
ATOM     11  C12 CHE B   09      1.000   2.840   4.000  0.00  0.00    +0.030 A 
ATOM     12  C13 CHE B   09      1.000   3.410   8.000  0.00  0.00    +0.089 A 
ATOM     13  N3  CHE B   09      1.000   4.580   3.000  0.00  0.00    -0.252 NA
ATOM     14  C14 CHE B   09      1.000   5.150   2.000  0.00  0.00    +0.131 A 
ATOM     15  C15 CHE B   09      1.000   4.540   9.000  0.00  0.00    +0.131 A 
ATOM     16  N4  CHE B   09      1.000   3.380   5.000  0.00  0.00    -0.252 NA
ATOM     17  C16 CHE B   09      1.000   2.810   3.000  0.00  0.00    +0.090 A 
ATOM     18  C17 CHE B   09      1.000   1.610   4.000  0.00  0.00    +0.039 A 
ENDBRANCH   6   9
BRANCH   1  24
ATOM     19  C1  CHE B   09      1.000  -2.880   8.000  0.00  0.00    +0.065 C 
ATOM     20  C2  CHE B   09      1.000  -2.540   9.000  0.00  0.00    +0.039 A 
ATOM     21  C3  CHE B   09      1.000  -2.610   5.000  0.00  0.00    +0.023 A 
ATOM     22  C4  CHE B   09      1.000  -2.300   8.000  0.00  0.00    +0.004 A 
ATOM     23  C5  CHE B   09      1.000  -1.930   3.000  0.00  0.00    +0.030 A 
ATOM     24  C6  CHE B   09      1.000  -1.870   6.000  0.00  0.00    +0.091 A 
ATOM     25  N5  CHE B   09      1.000  -2.170   8.000  0.00  0.00    -0.250 NA
ENDBRANCH   1  24
TORSDOF 2
