REMARK  Name = dock_mp/CHEMBL5/CHEMBL565643.pdb
REMARK  3 active torsions:
REMARK  status: ('A' for Active; 'I' for Inactive)
REMARK    1  A    between atoms: C1_1  and  C2_2
REMARK    2  A    between atoms: C9_9  and  C10_10
REMARK    3  A    between atoms: C12_15  and  C13_16
REMARK                            x       y       z     vdW  Elec       q    Type
REMARK                         _______ _______ _______ _____ _____    ______ ____
ROOT
ATOM      1  C10 CHE B   06      1.000  -1.010   0.000  0.00  0.00    +0.068 A 
ATOM      2  S1  CHE B   06      1.000  -1.240   0.000  0.00  0.00    -0.050 S 
ATOM      3  C11 CHE B   06      1.000  -3.100   5.000  0.00  0.00    +0.157 A 
ATOM      4  N1  CHE B   06      1.000  -3.880   6.000  0.00  0.00    -0.337 N 
ATOM      5  N2  CHE B   06      1.000  -3.170   2.000  0.00  0.00    -0.223 NA
ATOM      6  C12 CHE B   06      1.000  -2.240   9.000  0.00  0.00    +0.108 A 
ATOM      7  H9  CHE B   06      1.000  -4.760   4.000  0.00  0.00    +0.144 HD
ATOM      8  H10 CHE B   06      1.000  -3.540   5.000  0.00  0.00    +0.144 HD
ENDROOT
BRANCH   1  17
ATOM      9  C1  CHE B   06      1.000   2.450   2.000  0.00  0.00    +0.046 C 
ATOM     10  C2  CHE B   06      1.000   2.940   5.000  0.00  0.00    -0.024 A 
ATOM     11  C3  CHE B   06      1.000   4.160   0.000  0.00  0.00    +0.005 A 
ATOM     12  C4  CHE B   06      1.000   4.630   3.000  0.00  0.00    +0.001 A 
ATOM     13  C5  CHE B   06      1.000   3.890   7.000  0.00  0.00    +0.010 A 
ATOM     14  C6  CHE B   06      1.000   2.670   1.000  0.00  0.00    +0.001 A 
ATOM     15  C7  CHE B   06      1.000   1.970   2.000  0.00  0.00    +0.012 A 
ATOM     16  C8  CHE B   06      1.000   0.750   3.000  0.00  0.00    +0.029 A 
ATOM     17  C9  CHE B   06      1.000   0.270   2.000  0.00  0.00    +0.080 A 
ATOM     18  N4  CHE B   06      1.000   0.980   6.000  0.00  0.00    -0.246 NA
ATOM     19  C18 CHE B   06      1.000   2.180   8.000  0.00  0.00    +0.075 A 
ENDBRANCH   1  17
BRANCH   6  20
ATOM     20  C13 CHE B   06      1.000  -2.540   5.000  0.00  0.00    +0.090 A 
ATOM     21  C14 CHE B   06      1.000  -1.950   1.000  0.00  0.00    +0.030 A 
ATOM     22  C15 CHE B   06      1.000  -2.260   9.000  0.00  0.00    +0.004 A 
ATOM     23  C16 CHE B   06      1.000  -3.180   3.000  0.00  0.00    +0.020 A 
ATOM     24  C17 CHE B   06      1.000  -3.760   5.000  0.00  0.00    +0.111 A 
ATOM     25  N3  CHE B   06      1.000  -3.420   4.000  0.00  0.00    -0.253 NA
ENDBRANCH   6  20
TORSDOF 2
