REMARK  Name = dock_mp/CHEMBL5/CHEMBL567706.pdb
REMARK  9 active torsions:
REMARK  status: ('A' for Active; 'I' for Inactive)
REMARK    1  A    between atoms: C1_1  and  N1_2
REMARK    2  A    between atoms: N1_2  and  C2_3
REMARK    3  A    between atoms: N1_2  and  C3_4
REMARK    4  A    between atoms: C3_4  and  C4_5
REMARK    5  A    between atoms: C4_5  and  C5_6
REMARK    6  A    between atoms: C5_6  and  C6_7
REMARK    7  A    between atoms: C10_11  and  C11_12
REMARK    8  A    between atoms: C13_14  and  C14_15
REMARK    9  A    between atoms: C16_19  and  C17_20
REMARK                            x       y       z     vdW  Elec       q    Type
REMARK                         _______ _______ _______ _____ _____    ______ ____
ROOT
ATOM      1  C11 CHE B   07      1.000  -1.330   1.000  0.00  0.00    +0.072 A 
ATOM      2  C12 CHE B   07      1.000  -2.230   0.000  0.00  0.00    +0.037 A 
ATOM      3  C13 CHE B   07      1.000  -3.590   1.000  0.00  0.00    -0.011 A 
ATOM      4  C22 CHE B   07      1.000  -4.050   3.000  0.00  0.00    +0.028 A 
ATOM      5  C23 CHE B   07      1.000  -3.110   4.000  0.00  0.00    +0.112 A 
ATOM      6  N5  CHE B   07      1.000  -1.800   7.000  0.00  0.00    -0.255 NA
ENDROOT
BRANCH   1  11
ATOM      7  C6  CHE B   07      1.000   2.090   9.000  0.00  0.00    -0.047 A 
ATOM      8  C7  CHE B   07      1.000   2.850   8.000  0.00  0.00    +0.003 A 
ATOM      9  C8  CHE B   07      1.000   2.270   1.000  0.00  0.00    +0.001 A 
ATOM     10  C9  CHE B   07      1.000   0.900   4.000  0.00  0.00    +0.010 A 
ATOM     11  C10 CHE B   07      1.000   0.100   5.000  0.00  0.00    +0.001 A 
ATOM     12  C24 CHE B   07      1.000   0.710   5.000  0.00  0.00    +0.013 A 
BRANCH   7  13
ATOM     13  C5  CHE B   07      1.000   2.700   8.000  0.00  0.00    +0.033 C 
BRANCH  13  14
ATOM     14  C4  CHE B   07      1.000   2.840   0.000  0.00  0.00    -0.014 C 
BRANCH  14  15
ATOM     15  C3  CHE B   07      1.000   3.670   0.000  0.00  0.00    -0.079 C 
BRANCH  15  17
ATOM     16  C1  CHE B   07      1.000   5.870   2.000  0.00  0.00    -0.097 C 
ATOM     17  N1  CHE B   07      1.000   5.020   2.000  0.00  0.00    +0.376 N 
ATOM     18  C2  CHE B   07      1.000   5.560   0.000  0.00  0.00    -0.097 C 
ATOM     19  H4  CHE B   07      1.000   5.080   9.000  0.00  0.00    -0.083 HD
ENDBRANCH  15  17
ENDBRANCH  14  15
ENDBRANCH  13  14
ENDBRANCH   7  13
ENDBRANCH   1  11
BRANCH   3  20
ATOM     20  C14 CHE B   07      1.000  -4.570   0.000  0.00  0.00    +0.029 A 
ATOM     21  C15 CHE B   07      1.000  -5.380   2.000  0.00  0.00    +0.114 A 
ATOM     22  N2  CHE B   07      1.000  -6.110   8.000  0.00  0.00    -0.284 N 
ATOM     23  N3  CHE B   07      1.000  -5.790   1.000  0.00  0.00    -0.172 NA
ATOM     24  C16 CHE B   07      1.000  -4.830   4.000  0.00  0.00    +0.118 A 
ATOM     25  H19 CHE B   07      1.000  -6.810   7.000  0.00  0.00    +0.188 HD
BRANCH  24  26
ATOM     26  C17 CHE B   07      1.000  -4.170   3.000  0.00  0.00    +0.091 A 
ATOM     27  C18 CHE B   07      1.000  -4.320   6.000  0.00  0.00    +0.030 A 
ATOM     28  C19 CHE B   07      1.000  -3.720   6.000  0.00  0.00    +0.004 A 
ATOM     29  C20 CHE B   07      1.000  -2.960   2.000  0.00  0.00    +0.020 A 
ATOM     30  C21 CHE B   07      1.000  -2.810   7.000  0.00  0.00    +0.111 A 
ATOM     31  N4  CHE B   07      1.000  -3.420   4.000  0.00  0.00    -0.253 NA
ENDBRANCH  24  26
ENDBRANCH   3  20
TORSDOF 7
