REMARK  Name = dock_mp/CHEMBL5/CHEMBL565644.pdb
REMARK  8 active torsions:
REMARK  status: ('A' for Active; 'I' for Inactive)
REMARK    1  A    between atoms: C1_1  and  N1_2
REMARK    2  A    between atoms: N1_2  and  C2_3
REMARK    3  A    between atoms: N1_2  and  C3_4
REMARK    4  A    between atoms: C3_4  and  C4_5
REMARK    5  A    between atoms: C4_5  and  C5_6
REMARK    6  A    between atoms: C5_6  and  N2_7
REMARK    7  A    between atoms: C9_12  and  C10_13
REMARK    8  A    between atoms: C15_20  and  C16_21
REMARK                            x       y       z     vdW  Elec       q    Type
REMARK                         _______ _______ _______ _____ _____    ______ ____
ROOT
ATOM      1  N2  CHE B   06      1.000   2.140   2.000  0.00  0.00    -0.330 N 
ATOM      2  C6  CHE B   06      1.000   2.350   5.000  0.00  0.00    +0.200 A 
ATOM      3  N3  CHE B   06      1.000   1.280   3.000  0.00  0.00    -0.236 NA
ATOM      4  C7  CHE B   06      1.000   0.350   2.000  0.00  0.00    +0.090 A 
ATOM      5  C8  CHE B   06      1.000  -0.910   6.000  0.00  0.00    +0.038 A 
ATOM      6  C9  CHE B   06      1.000  -1.640   9.000  0.00  0.00    -0.012 A 
ATOM      7  C21 CHE B   06      1.000  -1.070   0.000  0.00  0.00    +0.011 A 
ATOM      8  C22 CHE B   06      1.000   0.200   9.000  0.00  0.00    +0.028 A 
ATOM      9  C23 CHE B   06      1.000   0.900   3.000  0.00  0.00    +0.069 A 
ENDROOT
BRANCH   6  10
ATOM     10  C10 CHE B   06      1.000  -2.970   8.000  0.00  0.00    +0.032 A 
ATOM     11  C11 CHE B   06      1.000  -3.350   4.000  0.00  0.00    +0.048 A 
ATOM     12  C12 CHE B   06      1.000  -2.850   0.000  0.00  0.00    +0.057 C 
ATOM     13  C13 CHE B   06      1.000  -3.910   8.000  0.00  0.00    +0.029 C 
ATOM     14  C14 CHE B   06      1.000  -5.150   6.000  0.00  0.00    +0.144 C 
ATOM     15  N4  CHE B   06      1.000  -4.680   5.000  0.00  0.00    -0.267 N 
ATOM     16  N5  CHE B   06      1.000  -5.160   7.000  0.00  0.00    -0.169 NA
ATOM     17  C15 CHE B   06      1.000  -4.130   2.000  0.00  0.00    +0.119 A 
BRANCH  17  18
ATOM     18  C16 CHE B   06      1.000  -4.180   7.000  0.00  0.00    +0.091 A 
ATOM     19  C17 CHE B   06      1.000  -4.640   5.000  0.00  0.00    +0.030 A 
ATOM     20  C18 CHE B   06      1.000  -4.710   8.000  0.00  0.00    +0.004 A 
ATOM     21  C19 CHE B   06      1.000  -4.340   2.000  0.00  0.00    +0.020 A 
ATOM     22  C20 CHE B   06      1.000  -3.880   7.000  0.00  0.00    +0.111 A 
ATOM     23  N6  CHE B   06      1.000  -3.820   3.000  0.00  0.00    -0.253 NA
ENDBRANCH  17  18
ENDBRANCH   6  10
BRANCH   1  24
ATOM     24  C5  CHE B   06      1.000   3.030   3.000  0.00  0.00    +0.121 C 
BRANCH  24  25
ATOM     25  C4  CHE B   06      1.000   3.930   5.000  0.00  0.00    +0.003 C 
BRANCH  25  26
ATOM     26  C3  CHE B   06      1.000   4.750   8.000  0.00  0.00    -0.078 C 
BRANCH  26  28
ATOM     27  C1  CHE B   06      1.000   5.050   5.000  0.00  0.00    -0.097 C 
ATOM     28  N1  CHE B   06      1.000   5.630   2.000  0.00  0.00    +0.376 N 
ATOM     29  C2  CHE B   06      1.000   6.880   7.000  0.00  0.00    -0.097 C 
ATOM     30  H4  CHE B   06      1.000   5.840   0.000  0.00  0.00    -0.083 HD
ENDBRANCH  26  28
ENDBRANCH  25  26
ENDBRANCH  24  25
ENDBRANCH   1  24
TORSDOF 6
