REMARK  Name = dock_mp/CHEMBL5/CHEMBL594371.pdb
REMARK  6 active torsions:
REMARK  status: ('A' for Active; 'I' for Inactive)
REMARK    1  A    between atoms: C1_1  and  C2_2
REMARK    2  A    between atoms: C2_2  and  C3_3
REMARK    3  A    between atoms: C7_7  and  C8_8
REMARK    4  A    between atoms: C9_9  and  C10_10
REMARK    5  A    between atoms: N3_20  and  C18_21
REMARK    6  A    between atoms: N4_22  and  C19_23
REMARK                            x       y       z     vdW  Elec       q    Type
REMARK                         _______ _______ _______ _____ _____    ______ ____
ROOT
ATOM      1  C8  CHE B   03      1.000   0.650   0.000  0.00  0.00    +0.073 A 
ATOM      2  C9  CHE B   03      1.000  -0.690   8.000  0.00  0.00    +0.078 A 
ATOM      3  N3  CHE B   03      1.000  -1.050   1.000  0.00  0.00    -0.283 N 
ATOM      4  C18 CHE B   03      1.000  -2.380   1.000  0.00  0.00    +0.171 C 
ATOM      5  N4  CHE B   03      1.000   0.010   2.000  0.00  0.00    -0.252 N 
ATOM      6  C19 CHE B   03      1.000   0.070   6.000  0.00  0.00    +0.174 C 
ATOM      7  C20 CHE B   03      1.000   1.090   7.000  0.00  0.00    +0.275 A 
ATOM      8  O1  CHE B   03      1.000   2.260   2.000  0.00  0.00    -0.266 OA
ENDROOT
BRANCH   2   9
ATOM      9  C10 CHE B   03      1.000  -1.520   0.000  0.00  0.00    +0.003 A 
ATOM     10  C11 CHE B   03      1.000  -1.200   0.000  0.00  0.00    +0.012 A 
ATOM     11  C12 CHE B   03      1.000  -1.980   1.000  0.00  0.00    +0.030 A 
ATOM     12  C13 CHE B   03      1.000  -3.030   9.000  0.00  0.00    +0.089 A 
ATOM     13  N1  CHE B   03      1.000  -3.800   0.000  0.00  0.00    -0.252 NA
ATOM     14  C14 CHE B   03      1.000  -4.810   2.000  0.00  0.00    +0.131 A 
ATOM     15  C15 CHE B   03      1.000  -5.080   1.000  0.00  0.00    +0.131 A 
ATOM     16  N2  CHE B   03      1.000  -4.330   0.000  0.00  0.00    -0.252 NA
ATOM     17  C16 CHE B   03      1.000  -3.320   4.000  0.00  0.00    +0.090 A 
ATOM     18  C17 CHE B   03      1.000  -2.560   9.000  0.00  0.00    +0.040 A 
ENDBRANCH   2   9
BRANCH   1  23
ATOM     19  C3  CHE B   03      1.000   3.150   4.000  0.00  0.00    -0.047 A 
ATOM     20  C4  CHE B   03      1.000   2.750   2.000  0.00  0.00    +0.003 A 
ATOM     21  C5  CHE B   03      1.000   1.680   9.000  0.00  0.00    +0.001 A 
ATOM     22  C6  CHE B   03      1.000   1.030   8.000  0.00  0.00    +0.009 A 
ATOM     23  C7  CHE B   03      1.000   1.440   3.000  0.00  0.00    -0.010 A 
ATOM     24  C21 CHE B   03      1.000   2.490   2.000  0.00  0.00    +0.012 A 
BRANCH  19  26
ATOM     25  C1  CHE B   03      1.000   5.540   7.000  0.00  0.00    +0.009 C 
ATOM     26  C2  CHE B   03      1.000   4.310   0.000  0.00  0.00    +0.032 C 
ENDBRANCH  19  26
ENDBRANCH   1  23
TORSDOF 3
