REMARK  Name = dock_mp/CHEMBL5/CHEMBL517068.pdb
REMARK  4 active torsions:
REMARK  status: ('A' for Active; 'I' for Inactive)
REMARK    1  A    between atoms: C1_1  and  C2_2
REMARK    2  A    between atoms: C4_7  and  C5_8
REMARK    3  A    between atoms: C9_13  and  C10_14
REMARK    4  A    between atoms: C11_16  and  C12_17
REMARK                            x       y       z     vdW  Elec       q    Type
REMARK                         _______ _______ _______ _____ _____    ______ ____
ROOT
ATOM      1  C1  CHE B   00      1.000  -5.160   8.000  0.00  0.00    +0.109 C 
ATOM      2  C2  CHE B   00      1.000  -4.110   1.000  0.00  0.00    +0.216 C 
ATOM      3  O1  CHE B   00      1.000  -4.470   3.000  0.00  0.00    -0.276 OA
ATOM      4  N1  CHE B   00      1.000  -2.730   8.000  0.00  0.00    -0.256 N 
ATOM      5  C3  CHE B   00      1.000  -1.730   3.000  0.00  0.00    +0.200 A 
ATOM      6  N2  CHE B   00      1.000  -0.410   1.000  0.00  0.00    -0.212 NA
ATOM      7  C4  CHE B   00      1.000   0.240   2.000  0.00  0.00    +0.117 A 
ATOM      8  C11 CHE B   00      1.000  -0.720   9.000  0.00  0.00    +0.078 A 
ATOM      9  N7  CHE B   00      1.000  -1.910   8.000  0.00  0.00    -0.325 N 
ATOM     10  H4  CHE B   00      1.000  -2.460   7.000  0.00  0.00    +0.158 HD
ATOM     11  H14 CHE B   00      1.000  -2.820   6.000  0.00  0.00    +0.169 HD
ENDROOT
BRANCH   8  12
ATOM     12  C12 CHE B   00      1.000  -0.520   2.000  0.00  0.00    +0.019 A 
ATOM     13  C13 CHE B   00      1.000   0.230   5.000  0.00  0.00    +0.015 A 
ATOM     14  C14 CHE B   00      1.000   0.350   9.000  0.00  0.00    +0.049 A 
ATOM     15  C15 CHE B   00      1.000  -0.250   6.000  0.00  0.00    +0.156 A 
ATOM     16  N4  CHE B   00      1.000  -0.300   6.000  0.00  0.00    -0.215 NA
ATOM     17  C16 CHE B   00      1.000  -1.060   7.000  0.00  0.00    +0.246 A 
ATOM     18  N5  CHE B   00      1.000  -1.470   0.000  0.00  0.00    -0.154 NA
ATOM     19  N6  CHE B   00      1.000  -0.990   1.000  0.00  0.00    -0.220 N 
ATOM     20  C17 CHE B   00      1.000  -1.120   5.000  0.00  0.00    +0.124 A 
ENDBRANCH   8  12
BRANCH   7  21
ATOM     21  C5  CHE B   00      1.000   1.670   5.000  0.00  0.00    +0.092 A 
ATOM     22  C6  CHE B   00      1.000   2.200   5.000  0.00  0.00    +0.033 A 
ATOM     23  C7  CHE B   00      1.000   3.550   6.000  0.00  0.00    +0.042 A 
ATOM     24  C8  CHE B   00      1.000   4.380   3.000  0.00  0.00    +0.144 A 
ATOM     25  F1  CHE B   00      1.000   5.690   3.000  0.00  0.00    -0.204 F 
ATOM     26  C9  CHE B   00      1.000   3.840   0.000  0.00  0.00    +0.074 A 
ATOM     27  C10 CHE B   00      1.000   4.750   6.000  0.00  0.00    +0.068 C 
ATOM     28  N3  CHE B   00      1.000   2.500   4.000  0.00  0.00    -0.247 NA
ENDBRANCH   7  21
TORSDOF 2
