REMARK  Name = dock_mp/CHEMBL5/CHEMBL541777.pdb
REMARK  4 active torsions:
REMARK  status: ('A' for Active; 'I' for Inactive)
REMARK    1  A    between atoms: C1_1  and  C2_2
REMARK    2  A    between atoms: C4_5  and  C5_6
REMARK    3  A    between atoms: C6_8  and  N2_9
REMARK    4  A    between atoms: N2_9  and  C7_10
REMARK                            x       y       z     vdW  Elec       q    Type
REMARK                         _______ _______ _______ _____ _____    ______ ____
ROOT
ATOM      1  C5  CHE B   07      1.000  -1.260   8.000  0.00  0.00    +0.188 A 
ATOM      2  N1  CHE B   07      1.000   0.040   0.000  0.00  0.00    -0.210 NA
ATOM      3  C6  CHE B   07      1.000   0.920   3.000  0.00  0.00    +0.135 A 
ATOM      4  C12 CHE B   07      1.000   0.390   4.000  0.00  0.00    +0.040 A 
ATOM      5  C13 CHE B   07      1.000   1.160   4.000  0.00  0.00    +0.013 A 
ATOM      6  C14 CHE B   07      1.000   0.560   8.000  0.00  0.00    +0.001 A 
ATOM      7  C15 CHE B   07      1.000  -0.760   6.000  0.00  0.00    +0.002 A 
ATOM      8  C16 CHE B   07      1.000  -1.540   5.000  0.00  0.00    +0.028 A 
ATOM      9  C17 CHE B   07      1.000  -0.970   9.000  0.00  0.00    +0.077 A 
ATOM     10  N4  CHE B   07      1.000  -1.760   7.000  0.00  0.00    -0.225 NA
ENDROOT
BRANCH   1  15
ATOM     11  C1  CHE B   07      1.000  -5.220   9.000  0.00  0.00    +0.066 C 
ATOM     12  C2  CHE B   07      1.000  -3.820   4.000  0.00  0.00    +0.046 A 
ATOM     13  C3  CHE B   07      1.000  -2.930   2.000  0.00  0.00    +0.070 A 
ATOM     14  S1  CHE B   07      1.000  -1.450   2.000  0.00  0.00    -0.072 S 
ATOM     15  C4  CHE B   07      1.000  -2.170   4.000  0.00  0.00    +0.145 A 
ATOM     16  N5  CHE B   07      1.000  -3.220   7.000  0.00  0.00    -0.241 NA
ENDBRANCH   1  15
BRANCH   3  17
ATOM     17  N2  CHE B   07      1.000   2.290   2.000  0.00  0.00    -0.299 N 
ATOM     18  H5  CHE B   07      1.000   2.890   6.000  0.00  0.00    +0.154 HD
BRANCH  17  19
ATOM     19  C7  CHE B   07      1.000   2.960   3.000  0.00  0.00    +0.035 A 
ATOM     20  C8  CHE B   07      1.000   2.410   7.000  0.00  0.00    +0.043 A 
ATOM     21  C9  CHE B   07      1.000   3.150   1.000  0.00  0.00    +0.112 A 
ATOM     22  N3  CHE B   07      1.000   4.420   9.000  0.00  0.00    -0.263 NA
ATOM     23  C10 CHE B   07      1.000   5.010   4.000  0.00  0.00    +0.112 A 
ATOM     24  C11 CHE B   07      1.000   4.280   8.000  0.00  0.00    +0.043 A 
ENDBRANCH  17  19
ENDBRANCH   3  17
TORSDOF 3
