REMARK  Name = dock_mp/CHEMBL5/CHEMBL594600.pdb
REMARK  4 active torsions:
REMARK  status: ('A' for Active; 'I' for Inactive)
REMARK    1  A    between atoms: C1_1  and  N1_2
REMARK    2  A    between atoms: C2_3  and  C3_4
REMARK    3  A    between atoms: C11_14  and  C12_15
REMARK    4  A    between atoms: N6_26  and  C19_27
REMARK                            x       y       z     vdW  Elec       q    Type
REMARK                         _______ _______ _______ _____ _____    ______ ____
ROOT
ATOM      1  C1  CHE B   06      1.000   0.220   7.000  0.00  0.00    +0.171 C 
ATOM      2  N1  CHE B   06      1.000  -0.700   0.000  0.00  0.00    -0.283 N 
ATOM      3  C2  CHE B   06      1.000  -0.430   0.000  0.00  0.00    +0.078 A 
ATOM      4  C11 CHE B   06      1.000  -1.610   3.000  0.00  0.00    +0.073 A 
ATOM      5  C18 CHE B   06      1.000  -2.600   2.000  0.00  0.00    +0.275 A 
ATOM      6  O2  CHE B   06      1.000  -3.820   8.000  0.00  0.00    -0.266 OA
ATOM      7  N6  CHE B   06      1.000  -2.000   6.000  0.00  0.00    -0.252 N 
ATOM      8  C19 CHE B   06      1.000  -2.700   1.000  0.00  0.00    +0.174 C 
ENDROOT
BRANCH   3   9
ATOM      9  C3  CHE B   06      1.000   0.890   3.000  0.00  0.00    +0.003 A 
ATOM     10  C4  CHE B   06      1.000   1.680   0.000  0.00  0.00    +0.012 A 
ATOM     11  C5  CHE B   06      1.000   2.920   6.000  0.00  0.00    +0.030 A 
ATOM     12  C6  CHE B   06      1.000   3.430   2.000  0.00  0.00    +0.089 A 
ATOM     13  N2  CHE B   06      1.000   4.650   6.000  0.00  0.00    -0.252 NA
ATOM     14  C7  CHE B   06      1.000   5.090   5.000  0.00  0.00    +0.131 A 
ATOM     15  C8  CHE B   06      1.000   4.310   5.000  0.00  0.00    +0.131 A 
ATOM     16  N3  CHE B   06      1.000   3.080   4.000  0.00  0.00    -0.252 NA
ATOM     17  C9  CHE B   06      1.000   2.630   9.000  0.00  0.00    +0.090 A 
ATOM     18  C10 CHE B   06      1.000   1.380   5.000  0.00  0.00    +0.040 A 
ENDBRANCH   3   9
BRANCH   4  19
ATOM     19  C12 CHE B   06      1.000  -1.830   2.000  0.00  0.00    -0.008 A 
ATOM     20  C13 CHE B   06      1.000  -1.500   9.000  0.00  0.00    +0.011 A 
ATOM     21  C14 CHE B   06      1.000  -1.700   4.000  0.00  0.00    +0.034 A 
ATOM     22  C15 CHE B   06      1.000  -2.220   1.000  0.00  0.00    +0.134 A 
ATOM     23  N4  CHE B   06      1.000  -2.510   5.000  0.00  0.00    -0.049 NA
ATOM     24  O1  CHE B   06      1.000  -2.970   5.000  0.00  0.00    -0.242 OA
ATOM     25  N5  CHE B   06      1.000  -3.000   4.000  0.00  0.00    -0.049 NA
ATOM     26  C16 CHE B   06      1.000  -2.530   5.000  0.00  0.00    +0.135 A 
ATOM     27  C17 CHE B   06      1.000  -2.340   5.000  0.00  0.00    +0.042 A 
ENDBRANCH   4  19
TORSDOF 2
