REMARK  Name = dock_mp/CHEMBL5/CHEMBL575721.pdb
REMARK  9 active torsions:
REMARK  status: ('A' for Active; 'I' for Inactive)
REMARK    1  A    between atoms: C1_1  and  O1_2
REMARK    2  A    between atoms: O1_2  and  C2_3
REMARK    3  A    between atoms: C6_7  and  N1_8
REMARK    4  A    between atoms: N1_8  and  C7_9
REMARK    5  A    between atoms: C9_11  and  O2_12
REMARK    6  A    between atoms: O2_12  and  C10_13
REMARK    7  A    between atoms: C12_15  and  C13_16
REMARK    8  A    between atoms: C14_17  and  C15_18
REMARK    9  A    between atoms: C16_20  and  C17_21
REMARK                            x       y       z     vdW  Elec       q    Type
REMARK                         _______ _______ _______ _____ _____    ______ ____
ROOT
ATOM      1  C7  CHE B   07      1.000   1.820   0.000  0.00  0.00    +0.126 A 
ATOM      2  C8  CHE B   07      1.000   0.520   2.000  0.00  0.00    +0.090 A 
ATOM      3  C9  CHE B   07      1.000  -0.610   0.000  0.00  0.00    +0.133 A 
ATOM      4  C22 CHE B   07      1.000  -0.360   1.000  0.00  0.00    +0.066 A 
ATOM      5  C23 CHE B   07      1.000   0.900   2.000  0.00  0.00    +0.116 A 
ATOM      6  N4  CHE B   07      1.000   1.930   4.000  0.00  0.00    -0.240 NA
ENDROOT
BRANCH   1   7
ATOM      7  N1  CHE B   07      1.000   2.910   5.000  0.00  0.00    -0.299 N 
ATOM      8  H7  CHE B   07      1.000   2.690   3.000  0.00  0.00    +0.154 HD
BRANCH   7  13
ATOM      9  C2  CHE B   07      1.000   6.570   9.000  0.00  0.00    +0.122 A 
ATOM     10  C3  CHE B   07      1.000   7.050   7.000  0.00  0.00    +0.046 A 
ATOM     11  C4  CHE B   07      1.000   6.160   4.000  0.00  0.00    +0.005 A 
ATOM     12  C5  CHE B   07      1.000   4.790   7.000  0.00  0.00    +0.023 A 
ATOM     13  C6  CHE B   07      1.000   4.270   9.000  0.00  0.00    +0.036 A 
ATOM     14  C24 CHE B   07      1.000   5.220   7.000  0.00  0.00    +0.069 A 
BRANCH   9  16
ATOM     15  C1  CHE B   07      1.000   8.850   6.000  0.00  0.00    +0.277 C 
ATOM     16  O1  CHE B   07      1.000   7.460   2.000  0.00  0.00    -0.495 OA
ENDBRANCH   9  16
ENDBRANCH   7  13
ENDBRANCH   1   7
BRANCH   3  17
ATOM     17  O2  CHE B   07      1.000  -1.870   9.000  0.00  0.00    -0.454 OA
BRANCH  17  18
ATOM     18  C10 CHE B   07      1.000  -2.710   6.000  0.00  0.00    +0.156 A 
ATOM     19  C11 CHE B   07      1.000  -2.460   0.000  0.00  0.00    +0.053 A 
ATOM     20  C12 CHE B   07      1.000  -3.440   0.000  0.00  0.00    -0.026 A 
ATOM     21  C13 CHE B   07      1.000  -3.130   0.000  0.00  0.00    +0.046 C 
ATOM     22  C14 CHE B   07      1.000  -4.740   9.000  0.00  0.00    +0.042 A 
ATOM     23  C15 CHE B   07      1.000  -5.810   4.000  0.00  0.00    +0.066 C 
ATOM     24  N2  CHE B   07      1.000  -5.040   6.000  0.00  0.00    -0.246 NA
ATOM     25  C16 CHE B   07      1.000  -4.090   9.000  0.00  0.00    +0.131 A 
BRANCH  25  26
ATOM     26  C17 CHE B   07      1.000  -4.520   5.000  0.00  0.00    +0.093 A 
ATOM     27  C18 CHE B   07      1.000  -3.970   4.000  0.00  0.00    +0.030 A 
ATOM     28  C19 CHE B   07      1.000  -4.460   8.000  0.00  0.00    +0.004 A 
ATOM     29  C20 CHE B   07      1.000  -5.490   0.000  0.00  0.00    +0.020 A 
ATOM     30  C21 CHE B   07      1.000  -6.020   0.000  0.00  0.00    +0.111 A 
ATOM     31  N3  CHE B   07      1.000  -5.530   2.000  0.00  0.00    -0.253 NA
ENDBRANCH  25  26
ENDBRANCH  17  18
ENDBRANCH   3  17
TORSDOF 6
