REMARK  Name = dock_mp/CHEMBL5/CHEMBL571451.pdb
REMARK  3 active torsions:
REMARK  status: ('A' for Active; 'I' for Inactive)
REMARK    1  A    between atoms: C5_6  and  C6_7
REMARK    2  A    between atoms: C7_9  and  N2_10
REMARK    3  A    between atoms: N2_10  and  C8_11
REMARK                            x       y       z     vdW  Elec       q    Type
REMARK                         _______ _______ _______ _____ _____    ______ ____
ROOT
ATOM      1  C6  CHE B   04      1.000   1.590   3.000  0.00  0.00    +0.162 A 
ATOM      2  N1  CHE B   04      1.000   0.470   4.000  0.00  0.00    -0.212 NA
ATOM      3  C7  CHE B   04      1.000  -0.610   9.000  0.00  0.00    +0.135 A 
ATOM      4  C13 CHE B   04      1.000  -0.610   7.000  0.00  0.00    +0.040 A 
ATOM      5  C14 CHE B   04      1.000  -1.720   0.000  0.00  0.00    +0.013 A 
ATOM      6  C15 CHE B   04      1.000  -1.660   1.000  0.00  0.00    +0.001 A 
ATOM      7  C16 CHE B   04      1.000  -0.510   2.000  0.00  0.00    +0.002 A 
ATOM      8  C17 CHE B   04      1.000   0.570   4.000  0.00  0.00    +0.028 A 
ATOM      9  C18 CHE B   04      1.000   0.540   2.000  0.00  0.00    +0.077 A 
ATOM     10  N4  CHE B   04      1.000   1.620   1.000  0.00  0.00    -0.227 NA
ENDROOT
BRANCH   1  16
ATOM     11 CL1  CHE B   04      1.000   6.450   7.000  0.00  0.00    -0.084 Cl
ATOM     12  C1  CHE B   04      1.000   5.000   0.000  0.00  0.00    +0.042 A 
ATOM     13  C2  CHE B   04      1.000   4.980   7.000  0.00  0.00    +0.020 A 
ATOM     14  C3  CHE B   04      1.000   3.860   1.000  0.00  0.00    +0.002 A 
ATOM     15  C4  CHE B   04      1.000   2.730   8.000  0.00  0.00    +0.011 A 
ATOM     16  C5  CHE B   04      1.000   2.760   7.000  0.00  0.00    +0.021 A 
ATOM     17  C19 CHE B   04      1.000   3.880   9.000  0.00  0.00    +0.031 A 
ENDBRANCH   1  16
BRANCH   3  18
ATOM     18  N2  CHE B   04      1.000  -1.800   0.000  0.00  0.00    -0.299 N 
ATOM     19  H4  CHE B   04      1.000  -1.940   4.000  0.00  0.00    +0.154 HD
BRANCH  18  20
ATOM     20  C8  CHE B   04      1.000  -2.760   8.000  0.00  0.00    +0.035 A 
ATOM     21  C9  CHE B   04      1.000  -2.480   4.000  0.00  0.00    +0.043 A 
ATOM     22  C10 CHE B   04      1.000  -3.440   0.000  0.00  0.00    +0.112 A 
ATOM     23  N3  CHE B   04      1.000  -4.620   6.000  0.00  0.00    -0.263 NA
ATOM     24  C11 CHE B   04      1.000  -4.880   1.000  0.00  0.00    +0.112 A 
ATOM     25  C12 CHE B   04      1.000  -3.980   7.000  0.00  0.00    +0.043 A 
ENDBRANCH  18  20
ENDBRANCH   3  18
TORSDOF 3
