REMARK  Name = dock_mp/CHEMBL5/CHEMBL556871.pdb
REMARK  4 active torsions:
REMARK  status: ('A' for Active; 'I' for Inactive)
REMARK    1  A    between atoms: C1_1  and  C2_2
REMARK    2  A    between atoms: C6_6  and  C7_7
REMARK    3  A    between atoms: C8_9  and  N2_10
REMARK    4  A    between atoms: N2_10  and  C9_11
REMARK                            x       y       z     vdW  Elec       q    Type
REMARK                         _______ _______ _______ _____ _____    ______ ____
ROOT
ATOM      1  C7  CHE B   08      1.000   0.840   3.000  0.00  0.00    +0.181 A 
ATOM      2  N1  CHE B   08      1.000  -0.430   0.000  0.00  0.00    -0.210 NA
ATOM      3  C8  CHE B   08      1.000  -1.430   1.000  0.00  0.00    +0.141 A 
ATOM      4  C14 CHE B   08      1.000  -1.020   6.000  0.00  0.00    +0.078 A 
ATOM      5  S1  CHE B   08      1.000  -2.110   4.000  0.00  0.00    -0.092 S 
ATOM      6  C15 CHE B   08      1.000  -0.650   1.000  0.00  0.00    +0.048 A 
ATOM      7  C16 CHE B   08      1.000   0.410   7.000  0.00  0.00    +0.036 A 
ATOM      8  C17 CHE B   08      1.000   0.230   4.000  0.00  0.00    +0.084 A 
ATOM      9  N4  CHE B   08      1.000   1.200   3.000  0.00  0.00    -0.225 NA
ENDROOT
BRANCH   1  15
ATOM     10  C1  CHE B   08      1.000   5.620   3.000  0.00  0.00    +0.065 C 
ATOM     11  C2  CHE B   08      1.000   4.210   4.000  0.00  0.00    +0.039 A 
ATOM     12  C3  CHE B   08      1.000   3.970   0.000  0.00  0.00    +0.023 A 
ATOM     13  C4  CHE B   08      1.000   2.650   7.000  0.00  0.00    +0.004 A 
ATOM     14  C5  CHE B   08      1.000   1.660   7.000  0.00  0.00    +0.031 A 
ATOM     15  C6  CHE B   08      1.000   1.960   6.000  0.00  0.00    +0.108 A 
ATOM     16  N5  CHE B   08      1.000   3.230   5.000  0.00  0.00    -0.249 NA
ENDBRANCH   1  15
BRANCH   3  17
ATOM     17  N2  CHE B   08      1.000  -2.790   3.000  0.00  0.00    -0.298 N 
ATOM     18  H7  CHE B   08      1.000  -3.460   9.000  0.00  0.00    +0.154 HD
BRANCH  17  19
ATOM     19  C9  CHE B   08      1.000  -3.360   4.000  0.00  0.00    +0.035 A 
ATOM     20  C10 CHE B   08      1.000  -2.700   5.000  0.00  0.00    +0.043 A 
ATOM     21  C11 CHE B   08      1.000  -3.330   9.000  0.00  0.00    +0.112 A 
ATOM     22  N3  CHE B   08      1.000  -4.670   6.000  0.00  0.00    -0.263 NA
ATOM     23  C12 CHE B   08      1.000  -5.400   9.000  0.00  0.00    +0.112 A 
ATOM     24  C13 CHE B   08      1.000  -4.760   9.000  0.00  0.00    +0.043 A 
ENDBRANCH  17  19
ENDBRANCH   3  17
TORSDOF 3
