REMARK  Name = dock_mp/CHEMBL5/CHEMBL552232.pdb
REMARK  5 active torsions:
REMARK  status: ('A' for Active; 'I' for Inactive)
REMARK    1  A    between atoms: C1_1  and  C2_2
REMARK    2  A    between atoms: C6_6  and  C7_7
REMARK    3  A    between atoms: C8_9  and  C9_10
REMARK    4  A    between atoms: C11_12  and  N2_13
REMARK    5  A    between atoms: N2_13  and  C12_14
REMARK                            x       y       z     vdW  Elec       q    Type
REMARK                         _______ _______ _______ _____ _____    ______ ____
ROOT
ATOM      1  C7  CHE B   02      1.000   1.120   1.000  0.00  0.00    +0.180 A 
ATOM      2  N1  CHE B   02      1.000   0.650   9.000  0.00  0.00    -0.231 NA
ATOM      3  C8  CHE B   02      1.000  -0.590   2.000  0.00  0.00    +0.044 A 
ATOM      4  C9  CHE B   02      1.000  -1.040   4.000  0.00  0.00    +0.066 C 
ATOM      5  C10 CHE B   02      1.000  -1.440   3.000  0.00  0.00    +0.067 A 
ATOM      6  C11 CHE B   02      1.000  -0.970   6.000  0.00  0.00    +0.127 A 
ATOM      7  N4  CHE B   02      1.000   0.290   4.000  0.00  0.00    -0.211 NA
ENDROOT
BRANCH   1  13
ATOM      8  C1  CHE B   02      1.000   4.610   8.000  0.00  0.00    +0.065 C 
ATOM      9  C2  CHE B   02      1.000   4.170   9.000  0.00  0.00    +0.039 A 
ATOM     10  C3  CHE B   02      1.000   5.010   8.000  0.00  0.00    +0.023 A 
ATOM     11  C4  CHE B   02      1.000   4.570   8.000  0.00  0.00    +0.004 A 
ATOM     12  C5  CHE B   02      1.000   3.290   7.000  0.00  0.00    +0.031 A 
ATOM     13  C6  CHE B   02      1.000   2.480   4.000  0.00  0.00    +0.108 A 
ATOM     14  N5  CHE B   02      1.000   2.930   1.000  0.00  0.00    -0.249 NA
ENDBRANCH   1  13
BRANCH   6  15
ATOM     15  N2  CHE B   02      1.000  -1.890   2.000  0.00  0.00    -0.299 N 
ATOM     16  H11 CHE B   02      1.000  -1.650   0.000  0.00  0.00    +0.154 HD
BRANCH  15  17
ATOM     17  C12 CHE B   02      1.000  -3.170   8.000  0.00  0.00    +0.035 A 
ATOM     18  C13 CHE B   02      1.000  -4.210   5.000  0.00  0.00    +0.043 A 
ATOM     19  C14 CHE B   02      1.000  -5.420   2.000  0.00  0.00    +0.112 A 
ATOM     20  N3  CHE B   02      1.000  -5.620   0.000  0.00  0.00    -0.263 NA
ATOM     21  C15 CHE B   02      1.000  -4.580   6.000  0.00  0.00    +0.112 A 
ATOM     22  C16 CHE B   02      1.000  -3.360   5.000  0.00  0.00    +0.043 A 
ENDBRANCH  15  17
ENDBRANCH   6  15
TORSDOF 3
