REMARK  Name = dock_mp/CHEMBL5/CHEMBL585505.pdb
REMARK  9 active torsions:
REMARK  status: ('A' for Active; 'I' for Inactive)
REMARK    1  A    between atoms: C1_1  and  C2_2
REMARK    2  A    between atoms: C2_2  and  C3_3
REMARK    3  A    between atoms: C2_2  and  C4_4
REMARK    4  A    between atoms: C5_6  and  C6_7
REMARK    5  A    between atoms: C10_11  and  C11_12
REMARK    6  A    between atoms: C12_14  and  C13_15
REMARK    7  A    between atoms: C16_19  and  C17_20
REMARK    8  A    between atoms: C20_23  and  C21_24
REMARK    9  A    between atoms: N4_26  and  C22_27
REMARK                            x       y       z     vdW  Elec       q    Type
REMARK                         _______ _______ _______ _____ _____    ______ ____
ROOT
ATOM      1  C13 CHE B   05      1.000  -2.780   7.000  0.00  0.00    +0.004 A 
ATOM      2  C14 CHE B   05      1.000  -3.000   3.000  0.00  0.00    +0.030 A 
ATOM      3  C15 CHE B   05      1.000  -1.940   6.000  0.00  0.00    +0.112 A 
ATOM      4  N3  CHE B   05      1.000  -0.700   6.000  0.00  0.00    -0.255 NA
ATOM      5  C16 CHE B   05      1.000  -0.400   8.000  0.00  0.00    +0.072 A 
ATOM      6  C29 CHE B   05      1.000  -1.470   9.000  0.00  0.00    +0.038 A 
ENDROOT
BRANCH   1  10
ATOM      7  C4  CHE B   05      1.000  -5.410   1.000  0.00  0.00    +0.111 A 
ATOM      8  N1  CHE B   05      1.000  -5.820   3.000  0.00  0.00    -0.230 NA
ATOM      9  C5  CHE B   05      1.000  -4.930   1.000  0.00  0.00    +0.115 A 
ATOM     10  C12 CHE B   05      1.000  -3.930   1.000  0.00  0.00    +0.076 A 
ATOM     11  N5  CHE B   05      1.000  -4.250   1.000  0.00  0.00    -0.341 N 
ATOM     12  H31 CHE B   05      1.000  -3.680   0.000  0.00  0.00    +0.167 HD
BRANCH   9  13
ATOM     13  C6  CHE B   05      1.000  -4.980   4.000  0.00  0.00    +0.092 A 
ATOM     14  C7  CHE B   05      1.000  -4.040   4.000  0.00  0.00    +0.030 A 
ATOM     15  C8  CHE B   05      1.000  -4.160   4.000  0.00  0.00    +0.004 A 
ATOM     16  C9  CHE B   05      1.000  -5.230   2.000  0.00  0.00    +0.023 A 
ATOM     17  C10 CHE B   05      1.000  -6.150   9.000  0.00  0.00    +0.039 A 
ATOM     18  C11 CHE B   05      1.000  -7.320   6.000  0.00  0.00    +0.065 C 
ATOM     19  N2  CHE B   05      1.000  -6.020   2.000  0.00  0.00    -0.250 NA
ENDBRANCH   9  13
BRANCH   7  21
ATOM     20  C1  CHE B   05      1.000  -5.270   1.000  0.00  0.00    +0.015 C 
ATOM     21  C2  CHE B   05      1.000  -6.160   5.000  0.00  0.00    +0.049 C 
ATOM     22  C3  CHE B   05      1.000  -6.580   4.000  0.00  0.00    +0.015 C 
ENDBRANCH   7  21
ENDBRANCH   1  10
BRANCH   5  23
ATOM     23  C17 CHE B   05      1.000   0.970   4.000  0.00  0.00    +0.000 A 
ATOM     24  C18 CHE B   05      1.000   1.340   7.000  0.00  0.00    +0.011 A 
ATOM     25  C19 CHE B   05      1.000   2.680   2.000  0.00  0.00    +0.014 A 
ATOM     26  C20 CHE B   05      1.000   3.680   2.000  0.00  0.00    +0.037 A 
ATOM     27  C27 CHE B   05      1.000   3.300   8.000  0.00  0.00    +0.014 A 
ATOM     28  C28 CHE B   05      1.000   1.970   7.000  0.00  0.00    +0.011 A 
BRANCH  26  29
ATOM     29  C21 CHE B   05      1.000   5.040   3.000  0.00  0.00    +0.244 C 
ATOM     30  O1  CHE B   05      1.000   5.280   2.000  0.00  0.00    -0.270 OA
ATOM     31  N4  CHE B   05      1.000   6.150   4.000  0.00  0.00    -0.308 N 
ATOM     32  H18 CHE B   05      1.000   6.000   3.000  0.00  0.00    +0.149 HD
BRANCH  31  33
ATOM     33  C22 CHE B   05      1.000   7.490   1.000  0.00  0.00    +0.078 C 
ATOM     34  C23 CHE B   05      1.000   8.210   5.000  0.00  0.00    +0.050 C 
ATOM     35  C24 CHE B   05      1.000   9.580   8.000  0.00  0.00    +0.161 C 
ATOM     36  O2  CHE B   05      1.000  10.100   2.000  0.00  0.00    -0.380 OA
ATOM     37  C25 CHE B   05      1.000   9.720   9.000  0.00  0.00    +0.161 C 
ATOM     38  C26 CHE B   05      1.000   8.280   2.000  0.00  0.00    +0.050 C 
ENDBRANCH  31  33
ENDBRANCH  26  29
ENDBRANCH   5  23
TORSDOF 6
