MODEL 1
REMARK VINA RESULT:     -11.3      0.000      0.000
REMARK  Name = dock_mp/CHEMBL5/CHEMBL550482.pdb
REMARK  5 active torsions:
REMARK  status: ('A' for Active; 'I' for Inactive)
REMARK    1  A    between atoms: C1_1  and  C2_2
REMARK    2  A    between atoms: C6_6  and  C7_7
REMARK    3  A    between atoms: C8_9  and  N2_10
REMARK    4  A    between atoms: N2_10  and  C9_11
REMARK    5  A    between atoms: N3_15  and  C13_16
REMARK                            x       y       z     vdW  Elec       q    Type
REMARK                         _______ _______ _______ _____ _____    ______ ____
ROOT
ATOM      1  C7  CHE B   04     15.494  67.894   3.667  0.00  0.00    +0.181 A 
ATOM      2  N1  CHE B   04     18.354  68.658   6.638  0.00  0.00    -0.210 NA
ATOM      3  C8  CHE B   04     17.617  68.821   3.618  0.00  0.00    +0.135 A 
ATOM      4  C17 CHE B   04     17.268  68.639   3.814  0.00  0.00    +0.040 A 
ATOM      5  C18 CHE B   04     17.437  68.910   2.574  0.00  0.00    +0.013 A 
ATOM      6  C19 CHE B   04     20.313  69.133   8.970  0.00  0.00    +0.001 A 
ATOM      7  C20 CHE B   04     15.576  68.120   2.476  0.00  0.00    +0.002 A 
ATOM      8  C21 CHE B   04     15.864  67.904   4.604  0.00  0.00    +0.028 A 
ATOM      9  C22 CHE B   04     16.269  68.116   4.376  0.00  0.00    +0.077 A 
ATOM     10  N5  CHE B   04     16.123  67.857   5.603  0.00  0.00    -0.226 NA
ENDROOT
BRANCH   1  16
ATOM     11  C1  CHE B   04     13.344  64.375   5.112  0.00  0.00    +0.065 C 
ATOM     12  C2  CHE B   04     16.154  65.969   9.154  0.00  0.00    +0.039 A 
ATOM     13  C3  CHE B   04     15.444  66.009   7.259  0.00  0.00    +0.023 A 
ATOM     14  C4  CHE B   04     17.778  67.427  10.434  0.00  0.00    +0.004 A 
ATOM     15  C5  CHE B   04     18.637  68.232  11.042  0.00  0.00    +0.031 A 
ATOM     16  C6  CHE B   04     18.495  67.998  11.138  0.00  0.00    +0.108 A 
ATOM     17  N6  CHE B   04     15.734  66.484   7.064  0.00  0.00    -0.249 NA
ENDBRANCH   1  16
BRANCH   3  18
ATOM     18  N2  CHE B   04     21.897  69.778   9.224  0.00  0.00    -0.299 N 
ATOM     19  H7  CHE B   04     19.253  69.383   3.851  0.00  0.00    +0.154 HD
BRANCH  18  20
ATOM     20  C9  CHE B   04     19.590  69.640   2.524  0.00  0.00    +0.033 A 
ATOM     21  C10 CHE B   04     21.388  69.685   6.098  0.00  0.00    +0.025 A 
ATOM     22  C11 CHE B   04     21.446  69.596   3.803  0.00  0.00    +0.030 A 
ATOM     23  C12 CHE B   04     24.903  69.570   7.629  0.00  0.00    +0.069 A 
ATOM     24  N3  CHE B   04     23.659  69.443   2.629  0.00  0.00    -0.267 N 
ATOM     25  C13 CHE B   04     25.853  69.461   5.992  0.00  0.00    +0.173 C 
ATOM     26  N4  CHE B   04     23.487  69.370   0.456  0.00  0.00    -0.179 NA
ATOM     27  C14 CHE B   04     25.243  69.461   5.184  0.00  0.00    +0.143 A 
ATOM     28  C15 CHE B   04     22.654  69.513   3.162  0.00  0.00    +0.021 A 
ATOM     29  C16 CHE B   04     22.587  69.602   5.462  0.00  0.00    +0.034 A 
ENDBRANCH  18  20
ENDBRANCH   3  18
TORSDOF 3
ENDMDL
MODEL 2
REMARK VINA RESULT:     -10.8      2.576      7.069
REMARK  Name = dock_mp/CHEMBL5/CHEMBL550482.pdb
REMARK  5 active torsions:
REMARK  status: ('A' for Active; 'I' for Inactive)
REMARK    1  A    between atoms: C1_1  and  C2_2
REMARK    2  A    between atoms: C6_6  and  C7_7
REMARK    3  A    between atoms: C8_9  and  N2_10
REMARK    4  A    between atoms: N2_10  and  C9_11
REMARK    5  A    between atoms: N3_15  and  C13_16
REMARK                            x       y       z     vdW  Elec       q    Type
REMARK                         _______ _______ _______ _____ _____    ______ ____
ROOT
ATOM      1  C7  CHE B   04     22.647  69.791  11.887  0.00  0.00    +0.181 A 
ATOM      2  N1  CHE B   04     19.323  68.979   9.462  0.00  0.00    -0.210 NA
ATOM      3  C8  CHE B   04     21.994  70.541   9.794  0.00  0.00    +0.135 A 
ATOM      4  C17 CHE B   04     21.950  70.305  10.163  0.00  0.00    +0.040 A 
ATOM      5  C18 CHE B   04     22.893  71.107   9.835  0.00  0.00    +0.013 A 
ATOM      6  C19 CHE B   04     16.806  68.244   7.841  0.00  0.00    +0.001 A 
ATOM      7  C20 CHE B   04     23.579  70.534  11.652  0.00  0.00    +0.002 A 
ATOM      8  C21 CHE B   04     21.772  69.354  11.645  0.00  0.00    +0.028 A 
ATOM      9  C22 CHE B   04     21.823  69.628  11.218  0.00  0.00    +0.077 A 
ATOM     10  N5  CHE B   04     20.883  68.842  11.521  0.00  0.00    -0.226 NA
ENDROOT
BRANCH   1  16
ATOM     11  C1  CHE B   04     21.425  68.785  15.961  0.00  0.00    +0.065 C 
ATOM     12  C2  CHE B   04     17.585  67.056  12.955  0.00  0.00    +0.039 A 
ATOM     13  C3  CHE B   04     19.357  67.941  13.372  0.00  0.00    +0.023 A 
ATOM     14  C4  CHE B   04     16.334  66.598  10.804  0.00  0.00    +0.004 A 
ATOM     15  C5  CHE B   04     15.735  66.391   9.640  0.00  0.00    +0.031 A 
ATOM     16  C6  CHE B   04     15.654  66.324   9.910  0.00  0.00    +0.108 A 
ATOM     17  N6  CHE B   04     19.522  68.077  12.823  0.00  0.00    -0.249 NA
ENDBRANCH   1  16
BRANCH   3  18
ATOM     18  N2  CHE B   04     16.085  68.629   6.318  0.00  0.00    -0.299 N 
ATOM     19  H7  CHE B   04     21.627  69.978   8.184  0.00  0.00    +0.154 HD
BRANCH  18  20
ATOM     20  C9  CHE B   04     22.914  69.983   7.649  0.00  0.00    +0.033 A 
ATOM     21  C10 CHE B   04     19.190  69.258   6.376  0.00  0.00    +0.025 A 
ATOM     22  C11 CHE B   04     21.408  69.717   5.992  0.00  0.00    +0.030 A 
ATOM     23  C12 CHE B   04     17.204  68.933   3.111  0.00  0.00    +0.069 A 
ATOM     24  N3  CHE B   04     22.232  69.941   3.632  0.00  0.00    -0.267 N 
ATOM     25  C13 CHE B   04     18.656  69.256   1.936  0.00  0.00    +0.173 C 
ATOM     26  N4  CHE B   04     24.364  70.377   3.492  0.00  0.00    -0.179 NA
ATOM     27  C14 CHE B   04     19.527  69.421   2.426  0.00  0.00    +0.143 A 
ATOM     28  C15 CHE B   04     21.858  69.839   4.704  0.00  0.00    +0.021 A 
ATOM     29  C16 CHE B   04     19.637  69.379   5.097  0.00  0.00    +0.034 A 
ENDBRANCH  18  20
ENDBRANCH   3  18
TORSDOF 3
ENDMDL
MODEL 3
REMARK VINA RESULT:     -10.7      2.614      5.818
REMARK  Name = dock_mp/CHEMBL5/CHEMBL550482.pdb
REMARK  5 active torsions:
REMARK  status: ('A' for Active; 'I' for Inactive)
REMARK    1  A    between atoms: C1_1  and  C2_2
REMARK    2  A    between atoms: C6_6  and  C7_7
REMARK    3  A    between atoms: C8_9  and  N2_10
REMARK    4  A    between atoms: N2_10  and  C9_11
REMARK    5  A    between atoms: N3_15  and  C13_16
REMARK                            x       y       z     vdW  Elec       q    Type
REMARK                         _______ _______ _______ _____ _____    ______ ____
ROOT
ATOM      1  C7  CHE B   04     20.683  68.914   4.166  0.00  0.00    +0.181 A 
ATOM      2  N1  CHE B   04     19.110  68.626   8.043  0.00  0.00    -0.210 NA
ATOM      3  C8  CHE B   04     21.273  69.879   6.188  0.00  0.00    +0.135 A 
ATOM      4  C17 CHE B   04     21.029  69.622   5.927  0.00  0.00    +0.040 A 
ATOM      5  C18 CHE B   04     22.040  70.346   5.620  0.00  0.00    +0.013 A 
ATOM      6  C19 CHE B   04     17.800  68.272  10.811  0.00  0.00    +0.001 A 
ATOM      7  C20 CHE B   04     21.633  69.573   3.793  0.00  0.00    +0.002 A 
ATOM      8  C21 CHE B   04     20.049  68.588   4.877  0.00  0.00    +0.028 A 
ATOM      9  C22 CHE B   04     20.331  68.886   5.180  0.00  0.00    +0.077 A 
ATOM     10  N5  CHE B   04     19.337  68.180   5.505  0.00  0.00    -0.226 NA
ENDROOT
BRANCH   1  16
ATOM     11  C1  CHE B   04     17.066  69.020   1.717  0.00  0.00    +0.065 C 
ATOM     12  C2  CHE B   04     15.484  67.361   6.355  0.00  0.00    +0.039 A 
ATOM     13  C3  CHE B   04     16.813  68.004   4.972  0.00  0.00    +0.023 A 
ATOM     14  C4  CHE B   04     15.693  66.672   8.781  0.00  0.00    +0.004 A 
ATOM     15  C5  CHE B   04     15.877  66.326  10.047  0.00  0.00    +0.031 A 
ATOM     16  C6  CHE B   04     15.637  66.333   9.885  0.00  0.00    +0.108 A 
ATOM     17  N6  CHE B   04     17.302  67.990   5.303  0.00  0.00    -0.249 NA
ENDBRANCH   1  16
BRANCH   3  18
ATOM     18  N2  CHE B   04     18.013  68.840  12.430  0.00  0.00    -0.299 N 
ATOM     19  H7  CHE B   04     21.791  69.680   7.843  0.00  0.00    +0.154 HD
BRANCH  18  20
ATOM     20  C9  CHE B   04     23.168  69.782   7.658  0.00  0.00    +0.033 A 
ATOM     21  C10 CHE B   04     20.653  69.184  10.712  0.00  0.00    +0.025 A 
ATOM     22  C11 CHE B   04     22.769  69.364   9.837  0.00  0.00    +0.030 A 
ATOM     23  C12 CHE B   04     20.712  68.467  14.479  0.00  0.00    +0.069 A 
ATOM     24  N3  CHE B   04     24.756  69.090  11.346  0.00  0.00    -0.267 N 
ATOM     25  C13 CHE B   04     22.598  68.443  14.670  0.00  0.00    +0.173 C 
ATOM     26  N4  CHE B   04     26.667  69.299  10.315  0.00  0.00    -0.179 NA
ATOM     27  C14 CHE B   04     23.082  68.612  13.797  0.00  0.00    +0.143 A 
ATOM     28  C15 CHE B   04     23.854  69.215  10.661  0.00  0.00    +0.021 A 
ATOM     29  C16 CHE B   04     21.730  69.035  11.529  0.00  0.00    +0.034 A 
ENDBRANCH  18  20
ENDBRANCH   3  18
TORSDOF 3
ENDMDL
MODEL 4
REMARK VINA RESULT:     -10.7      2.006      7.523
REMARK  Name = dock_mp/CHEMBL5/CHEMBL550482.pdb
REMARK  5 active torsions:
REMARK  status: ('A' for Active; 'I' for Inactive)
REMARK    1  A    between atoms: C1_1  and  C2_2
REMARK    2  A    between atoms: C6_6  and  C7_7
REMARK    3  A    between atoms: C8_9  and  N2_10
REMARK    4  A    between atoms: N2_10  and  C9_11
REMARK    5  A    between atoms: N3_15  and  C13_16
REMARK                            x       y       z     vdW  Elec       q    Type
REMARK                         _______ _______ _______ _____ _____    ______ ____
ROOT
ATOM      1  C7  CHE B   04     22.857  69.971   2.326  0.00  0.00    +0.181 A 
ATOM      2  N1  CHE B   04     21.948  69.676   6.409  0.00  0.00    -0.210 NA
ATOM      3  C8  CHE B   04     20.947  69.350   3.480  0.00  0.00    +0.135 A 
ATOM      4  C17 CHE B   04     21.364  69.486   3.447  0.00  0.00    +0.040 A 
ATOM      5  C18 CHE B   04     20.534  69.216   2.509  0.00  0.00    +0.013 A 
ATOM      6  C19 CHE B   04     21.488  69.526   9.454  0.00  0.00    +0.001 A 
ATOM      7  C20 CHE B   04     22.132  69.735   1.380  0.00  0.00    +0.002 A 
ATOM      8  C21 CHE B   04     23.042  70.031   3.314  0.00  0.00    +0.028 A 
ATOM      9  C22 CHE B   04     22.559  69.874   3.352  0.00  0.00    +0.077 A 
ATOM     10  N5  CHE B   04     23.360  70.135   4.292  0.00  0.00    -0.226 NA
ENDROOT
BRANCH   1  16
ATOM     11  C1  CHE B   04     26.964  68.487   2.172  0.00  0.00    +0.065 C 
ATOM     12  C2  CHE B   04     26.076  69.424   7.182  0.00  0.00    +0.039 A 
ATOM     13  C3  CHE B   04     25.640  69.335   5.207  0.00  0.00    +0.023 A 
ATOM     14  C4  CHE B   04     24.763  70.144   9.222  0.00  0.00    +0.004 A 
ATOM     15  C5  CHE B   04     24.018  70.537  10.245  0.00  0.00    +0.031 A 
ATOM     16  C6  CHE B   04     24.291  70.438  10.235  0.00  0.00    +0.108 A 
ATOM     17  N6  CHE B   04     25.085  69.535   5.228  0.00  0.00    -0.249 NA
ENDBRANCH   1  16
BRANCH   3  18
ATOM     18  N2  CHE B   04     20.223  69.115  10.557  0.00  0.00    -0.299 N 
ATOM     19  H7  CHE B   04     19.636  69.023   4.584  0.00  0.00    +0.154 HD
BRANCH  18  20
ATOM     20  C9  CHE B   04     18.621  68.784   3.660  0.00  0.00    +0.033 A 
ATOM     21  C10 CHE B   04     19.082  68.675   7.633  0.00  0.00    +0.025 A 
ATOM     22  C11 CHE B   04     17.947  68.134   5.711  0.00  0.00    +0.030 A 
ATOM     23  C12 CHE B   04     17.378  67.244  10.758  0.00  0.00    +0.069 A 
ATOM     24  N3  CHE B   04     15.853  66.757   5.859  0.00  0.00    -0.267 N 
ATOM     25  C13 CHE B   04     15.939  66.401   9.858  0.00  0.00    +0.173 C 
ATOM     26  N4  CHE B   04     14.935  66.360   3.921  0.00  0.00    -0.179 NA
ATOM     27  C14 CHE B   04     15.976  66.528   8.854  0.00  0.00    +0.143 A 
ATOM     28  C15 CHE B   04     16.804  67.383   5.792  0.00  0.00    +0.021 A 
ATOM     29  C16 CHE B   04     17.948  67.929   7.713  0.00  0.00    +0.034 A 
ENDBRANCH  18  20
ENDBRANCH   3  18
TORSDOF 3
ENDMDL
MODEL 5
REMARK VINA RESULT:     -10.6      2.523      8.180
REMARK  Name = dock_mp/CHEMBL5/CHEMBL550482.pdb
REMARK  5 active torsions:
REMARK  status: ('A' for Active; 'I' for Inactive)
REMARK    1  A    between atoms: C1_1  and  C2_2
REMARK    2  A    between atoms: C6_6  and  C7_7
REMARK    3  A    between atoms: C8_9  and  N2_10
REMARK    4  A    between atoms: N2_10  and  C9_11
REMARK    5  A    between atoms: N3_15  and  C13_16
REMARK                            x       y       z     vdW  Elec       q    Type
REMARK                         _______ _______ _______ _____ _____    ______ ____
ROOT
ATOM      1  C7  CHE B   04     18.611  67.947  13.300  0.00  0.00    +0.181 A 
ATOM      2  N1  CHE B   04     20.516  68.987   9.711  0.00  0.00    -0.210 NA
ATOM      3  C8  CHE B   04     17.845  68.263  11.136  0.00  0.00    +0.135 A 
ATOM      4  C17 CHE B   04     18.153  68.249  11.450  0.00  0.00    +0.040 A 
ATOM      5  C18 CHE B   04     16.896  68.025  11.552  0.00  0.00    +0.013 A 
ATOM      6  C19 CHE B   04     22.109  69.760   7.188  0.00  0.00    +0.001 A 
ATOM      7  C20 CHE B   04     17.432  67.719  13.480  0.00  0.00    +0.002 A 
ATOM      8  C21 CHE B   04     19.392  68.193  12.713  0.00  0.00    +0.028 A 
ATOM      9  C22 CHE B   04     19.035  68.209  12.349  0.00  0.00    +0.077 A 
ATOM     10  N5  CHE B   04     20.271  68.435  12.226  0.00  0.00    -0.226 NA
ENDROOT
BRANCH   1  16
ATOM     11  C1  CHE B   04     21.599  68.181  16.480  0.00  0.00    +0.065 C 
ATOM     12  C2  CHE B   04     24.182  69.312  12.142  0.00  0.00    +0.039 A 
ATOM     13  C3  CHE B   04     22.573  68.814  13.264  0.00  0.00    +0.023 A 
ATOM     14  C4  CHE B   04     24.520  69.709   9.666  0.00  0.00    +0.004 A 
ATOM     15  C5  CHE B   04     24.623  69.903   8.359  0.00  0.00    +0.031 A 
ATOM     16  C6  CHE B   04     24.822  69.919   8.570  0.00  0.00    +0.108 A 
ATOM     17  N6  CHE B   04     22.170  68.783  12.835  0.00  0.00    -0.249 NA
ENDBRANCH   1  16
BRANCH   3  18
ATOM     18  N2  CHE B   04     21.818  70.056   5.509  0.00  0.00    -0.299 N 
ATOM     19  H7  CHE B   04     18.020  67.679   9.502  0.00  0.00    +0.154 HD
BRANCH  18  20
ATOM     20  C9  CHE B   04     17.088  66.644   9.535  0.00  0.00    +0.033 A 
ATOM     21  C10 CHE B   04     19.422  68.477   6.852  0.00  0.00    +0.025 A 
ATOM     22  C11 CHE B   04     17.519  67.327   7.431  0.00  0.00    +0.030 A 
ATOM     23  C12 CHE B   04     19.506  69.324   3.112  0.00  0.00    +0.069 A 
ATOM     24  N3  CHE B   04     15.817  66.789   5.667  0.00  0.00    -0.267 N 
ATOM     25  C13 CHE B   04     17.846  68.526   2.667  0.00  0.00    +0.173 C 
ATOM     26  N4  CHE B   04     14.090  65.696   6.429  0.00  0.00    -0.179 NA
ATOM     27  C14 CHE B   04     17.386  68.106   3.466  0.00  0.00    +0.143 A 
ATOM     28  C15 CHE B   04     16.590  67.034   6.468  0.00  0.00    +0.021 A 
ATOM     29  C16 CHE B   04     18.500  68.185   5.896  0.00  0.00    +0.034 A 
ENDBRANCH  18  20
ENDBRANCH   3  18
TORSDOF 3
ENDMDL
MODEL 6
REMARK VINA RESULT:     -10.5      2.247      3.155
REMARK  Name = dock_mp/CHEMBL5/CHEMBL550482.pdb
REMARK  5 active torsions:
REMARK  status: ('A' for Active; 'I' for Inactive)
REMARK    1  A    between atoms: C1_1  and  C2_2
REMARK    2  A    between atoms: C6_6  and  C7_7
REMARK    3  A    between atoms: C8_9  and  N2_10
REMARK    4  A    between atoms: N2_10  and  C9_11
REMARK    5  A    between atoms: N3_15  and  C13_16
REMARK                            x       y       z     vdW  Elec       q    Type
REMARK                         _______ _______ _______ _____ _____    ______ ____
ROOT
ATOM      1  C7  CHE B   04     17.688  68.122   4.784  0.00  0.00    +0.181 A 
ATOM      2  N1  CHE B   04     19.209  68.530   8.671  0.00  0.00    -0.210 NA
ATOM      3  C8  CHE B   04     19.820  68.476   5.619  0.00  0.00    +0.135 A 
ATOM      4  C17 CHE B   04     19.385  68.414   5.653  0.00  0.00    +0.040 A 
ATOM      5  C18 CHE B   04     20.105  68.470   4.595  0.00  0.00    +0.013 A 
ATOM      6  C19 CHE B   04     20.119  68.802  11.604  0.00  0.00    +0.001 A 
ATOM      7  C20 CHE B   04     18.299  68.163   3.735  0.00  0.00    +0.002 A 
ATOM      8  C21 CHE B   04     17.639  68.162   5.789  0.00  0.00    +0.028 A 
ATOM      9  C22 CHE B   04     18.142  68.235   5.750  0.00  0.00    +0.077 A 
ATOM     10  N5  CHE B   04     17.452  68.183   6.805  0.00  0.00    -0.226 NA
ENDROOT
BRANCH   1  16
ATOM     11  C1  CHE B   04     14.937  64.766   5.299  0.00  0.00    +0.065 C 
ATOM     12  C2  CHE B   04     15.919  66.429  10.099  0.00  0.00    +0.039 A 
ATOM     13  C3  CHE B   04     16.056  66.410   8.080  0.00  0.00    +0.023 A 
ATOM     14  C4  CHE B   04     16.952  67.876  11.899  0.00  0.00    +0.004 A 
ATOM     15  C5  CHE B   04     17.529  68.673  12.788  0.00  0.00    +0.031 A 
ATOM     16  C6  CHE B   04     17.346  68.450  12.822  0.00  0.00    +0.108 A 
ATOM     17  N6  CHE B   04     16.427  66.864   8.010  0.00  0.00    -0.249 NA
ENDBRANCH   1  16
BRANCH   3  18
ATOM     18  N2  CHE B   04     21.580  69.059  12.491  0.00  0.00    -0.299 N 
ATOM     19  H7  CHE B   04     21.016  69.368   6.524  0.00  0.00    +0.154 HD
BRANCH  18  20
ATOM     20  C9  CHE B   04     21.640  70.033   5.471  0.00  0.00    +0.033 A 
ATOM     21  C10 CHE B   04     22.139  69.413   9.392  0.00  0.00    +0.025 A 
ATOM     22  C11 CHE B   04     22.952  69.596   7.252  0.00  0.00    +0.030 A 
ATOM     23  C12 CHE B   04     24.919  68.661  11.925  0.00  0.00    +0.069 A 
ATOM     24  N3  CHE B   04     25.409  69.303   6.835  0.00  0.00    -0.267 N 
ATOM     25  C13 CHE B   04     26.349  68.630  10.682  0.00  0.00    +0.173 C 
ATOM     26  N4  CHE B   04     25.968  69.517   4.738  0.00  0.00    -0.179 NA
ATOM     27  C14 CHE B   04     26.045  68.807   9.732  0.00  0.00    +0.143 A 
ATOM     28  C15 CHE B   04     24.293  69.436   7.024  0.00  0.00    +0.021 A 
ATOM     29  C16 CHE B   04     23.470  69.254   9.167  0.00  0.00    +0.034 A 
ENDBRANCH  18  20
ENDBRANCH   3  18
TORSDOF 3
ENDMDL
MODEL 7
REMARK VINA RESULT:     -10.5      1.969      8.715
REMARK  Name = dock_mp/CHEMBL5/CHEMBL550482.pdb
REMARK  5 active torsions:
REMARK  status: ('A' for Active; 'I' for Inactive)
REMARK    1  A    between atoms: C1_1  and  C2_2
REMARK    2  A    between atoms: C6_6  and  C7_7
REMARK    3  A    between atoms: C8_9  and  N2_10
REMARK    4  A    between atoms: N2_10  and  C9_11
REMARK    5  A    between atoms: N3_15  and  C13_16
REMARK                            x       y       z     vdW  Elec       q    Type
REMARK                         _______ _______ _______ _____ _____    ______ ____
ROOT
ATOM      1  C7  CHE B   04     21.879  69.573  10.610  0.00  0.00    +0.181 A 
ATOM      2  N1  CHE B   04     21.609  69.547   6.425  0.00  0.00    -0.210 NA
ATOM      3  C8  CHE B   04     20.182  69.007   9.138  0.00  0.00    +0.135 A 
ATOM      4  C17 CHE B   04     20.586  69.146   9.243  0.00  0.00    +0.040 A 
ATOM      5  C18 CHE B   04     19.630  68.800  10.022  0.00  0.00    +0.013 A 
ATOM      6  C19 CHE B   04     21.622  69.602   3.342  0.00  0.00    +0.001 A 
ATOM      7  C20 CHE B   04     21.024  69.263  11.415  0.00  0.00    +0.002 A 
ATOM      8  C21 CHE B   04     22.211  69.704   9.668  0.00  0.00    +0.028 A 
ATOM      9  C22 CHE B   04     21.743  69.543   9.546  0.00  0.00    +0.077 A 
ATOM     10  N5  CHE B   04     22.671  69.879   8.760  0.00  0.00    -0.226 NA
ENDROOT
BRANCH   1  16
ATOM     11  C1  CHE B   04     25.820  67.779  11.200  0.00  0.00    +0.065 C 
ATOM     12  C2  CHE B   04     25.738  69.203   6.227  0.00  0.00    +0.039 A 
ATOM     13  C3  CHE B   04     25.012  68.979   8.102  0.00  0.00    +0.023 A 
ATOM     14  C4  CHE B   04     24.788  70.190   4.100  0.00  0.00    +0.004 A 
ATOM     15  C5  CHE B   04     24.227  70.723   3.023  0.00  0.00    +0.031 A 
ATOM     16  C6  CHE B   04     24.488  70.604   3.063  0.00  0.00    +0.108 A 
ATOM     17  N6  CHE B   04     24.480  69.221   8.023  0.00  0.00    -0.249 NA
ENDBRANCH   1  16
BRANCH   3  18
ATOM     18  N2  CHE B   04     20.550  69.250   2.033  0.00  0.00    -0.299 N 
ATOM     19  H7  CHE B   04     19.573  68.028   7.828  0.00  0.00    +0.154 HD
BRANCH  18  20
ATOM     20  C9  CHE B   04     18.908  67.054   8.569  0.00  0.00    +0.033 A 
ATOM     21  C10 CHE B   04     19.309  68.247   4.771  0.00  0.00    +0.025 A 
ATOM     22  C11 CHE B   04     18.038  67.526   6.544  0.00  0.00    +0.030 A 
ATOM     23  C12 CHE B   04     17.185  68.860   1.637  0.00  0.00    +0.069 A 
ATOM     24  N3  CHE B   04     15.562  67.239   6.252  0.00  0.00    -0.267 N 
ATOM     25  C13 CHE B   04     15.519  68.380   2.401  0.00  0.00    +0.173 C 
ATOM     26  N4  CHE B   04     14.548  66.548   8.055  0.00  0.00    -0.179 NA
ATOM     27  C14 CHE B   04     15.599  68.103   3.372  0.00  0.00    +0.143 A 
ATOM     28  C15 CHE B   04     16.687  67.369   6.384  0.00  0.00    +0.021 A 
ATOM     29  C16 CHE B   04     17.967  68.091   4.613  0.00  0.00    +0.034 A 
ENDBRANCH  18  20
ENDBRANCH   3  18
TORSDOF 3
ENDMDL
MODEL 8
REMARK VINA RESULT:     -10.0      3.100      7.987
REMARK  Name = dock_mp/CHEMBL5/CHEMBL550482.pdb
REMARK  5 active torsions:
REMARK  status: ('A' for Active; 'I' for Inactive)
REMARK    1  A    between atoms: C1_1  and  C2_2
REMARK    2  A    between atoms: C6_6  and  C7_7
REMARK    3  A    between atoms: C8_9  and  N2_10
REMARK    4  A    between atoms: N2_10  and  C9_11
REMARK    5  A    between atoms: N3_15  and  C13_16
REMARK                            x       y       z     vdW  Elec       q    Type
REMARK                         _______ _______ _______ _____ _____    ______ ____
ROOT
ATOM      1  C7  CHE B   04     23.609  70.554  10.851  0.00  0.00    +0.181 A 
ATOM      2  N1  CHE B   04     19.885  68.625  10.899  0.00  0.00    -0.210 NA
ATOM      3  C8  CHE B   04     22.095  69.996   9.188  0.00  0.00    +0.135 A 
ATOM      4  C17 CHE B   04     22.239  70.015   9.603  0.00  0.00    +0.040 A 
ATOM      5  C18 CHE B   04     22.804  70.450   8.539  0.00  0.00    +0.013 A 
ATOM      6  C19 CHE B   04     17.170  67.189  11.157  0.00  0.00    +0.001 A 
ATOM      7  C20 CHE B   04     24.210  70.993   9.891  0.00  0.00    +0.002 A 
ATOM      8  C21 CHE B   04     22.821  70.090  11.274  0.00  0.00    +0.028 A 
ATOM      9  C22 CHE B   04     22.653  70.069  10.792  0.00  0.00    +0.077 A 
ATOM     10  N5  CHE B   04     22.079  69.632  11.828  0.00  0.00    -0.226 NA
ENDROOT
BRANCH   1  16
ATOM     11  C1  CHE B   04     25.840  68.522  14.012  0.00  0.00    +0.065 C 
ATOM     12  C2  CHE B   04     20.920  67.085  14.721  0.00  0.00    +0.039 A 
ATOM     13  C3  CHE B   04     22.458  68.051  13.829  0.00  0.00    +0.023 A 
ATOM     14  C4  CHE B   04     18.433  66.983  14.269  0.00  0.00    +0.004 A 
ATOM     15  C5  CHE B   04     17.141  66.977  13.974  0.00  0.00    +0.031 A 
ATOM     16  C6  CHE B   04     17.289  66.842  14.184  0.00  0.00    +0.108 A 
ATOM     17  N6  CHE B   04     22.157  68.326  13.402  0.00  0.00    -0.249 NA
ENDBRANCH   1  16
BRANCH   3  18
ATOM     18  N2  CHE B   04     15.879  66.660  10.136  0.00  0.00    -0.299 N 
ATOM     19  H7  CHE B   04     20.723  69.614   8.180  0.00  0.00    +0.154 HD
BRANCH  18  20
ATOM     20  C9  CHE B   04     21.163  70.179   6.984  0.00  0.00    +0.033 A 
ATOM     21  C10 CHE B   04     17.996  68.097   8.266  0.00  0.00    +0.025 A 
ATOM     22  C11 CHE B   04     19.284  68.997   6.591  0.00  0.00    +0.030 A 
ATOM     23  C12 CHE B   04     14.952  66.216   6.884  0.00  0.00    +0.069 A 
ATOM     24  N3  CHE B   04     18.602  68.670   4.197  0.00  0.00    -0.267 N 
ATOM     25  C13 CHE B   04     15.312  66.529   5.050  0.00  0.00    +0.173 C 
ATOM     26  N4  CHE B   04     19.961  69.603   2.770  0.00  0.00    -0.179 NA
ATOM     27  C14 CHE B   04     16.154  67.073   4.904  0.00  0.00    +0.143 A 
ATOM     28  C15 CHE B   04     18.912  68.818   5.284  0.00  0.00    +0.021 A 
ATOM     29  C16 CHE B   04     17.626  67.920   6.969  0.00  0.00    +0.034 A 
ENDBRANCH  18  20
ENDBRANCH   3  18
TORSDOF 3
ENDMDL
MODEL 9
REMARK VINA RESULT:     -10.0      2.526      6.488
REMARK  Name = dock_mp/CHEMBL5/CHEMBL550482.pdb
REMARK  5 active torsions:
REMARK  status: ('A' for Active; 'I' for Inactive)
REMARK    1  A    between atoms: C1_1  and  C2_2
REMARK    2  A    between atoms: C6_6  and  C7_7
REMARK    3  A    between atoms: C8_9  and  N2_10
REMARK    4  A    between atoms: N2_10  and  C9_11
REMARK    5  A    between atoms: N3_15  and  C13_16
REMARK                            x       y       z     vdW  Elec       q    Type
REMARK                         _______ _______ _______ _____ _____    ______ ____
ROOT
ATOM      1  C7  CHE B   04     21.012  69.907   9.897  0.00  0.00    +0.181 A 
ATOM      2  N1  CHE B   04     20.988  69.779   5.705  0.00  0.00    -0.210 NA
ATOM      3  C8  CHE B   04     22.624  70.346   8.292  0.00  0.00    +0.135 A 
ATOM      4  C17 CHE B   04     22.223  70.229   8.430  0.00  0.00    +0.040 A 
ATOM      5  C18 CHE B   04     23.245  70.557   9.128  0.00  0.00    +0.013 A 
ATOM      6  C19 CHE B   04     20.756  69.622   2.635  0.00  0.00    +0.001 A 
ATOM      7  C20 CHE B   04     21.934  70.205  10.629  0.00  0.00    +0.002 A 
ATOM      8  C21 CHE B   04     20.609  69.759   8.986  0.00  0.00    +0.028 A 
ATOM      9  C22 CHE B   04     21.074  69.895   8.825  0.00  0.00    +0.077 A 
ATOM     10  N5  CHE B   04     20.079  69.575   8.118  0.00  0.00    -0.226 NA
ENDROOT
BRANCH   1  16
ATOM     11  C1  CHE B   04     17.341  67.965  11.257  0.00  0.00    +0.065 C 
ATOM     12  C2  CHE B   04     16.952  68.080   6.099  0.00  0.00    +0.039 A 
ATOM     13  C3  CHE B   04     17.815  68.408   7.900  0.00  0.00    +0.023 A 
ATOM     14  C4  CHE B   04     17.651  68.579   3.719  0.00  0.00    +0.004 A 
ATOM     15  C5  CHE B   04     18.081  68.870   2.500  0.00  0.00    +0.031 A 
ATOM     16  C6  CHE B   04     17.837  68.742   2.590  0.00  0.00    +0.108 A 
ATOM     17  N6  CHE B   04     18.310  68.670   7.717  0.00  0.00    -0.249 NA
ENDBRANCH   1  16
BRANCH   3  18
ATOM     18  N2  CHE B   04     21.748  69.880   1.244  0.00  0.00    -0.299 N 
ATOM     19  H7  CHE B   04     23.606  69.816   6.950  0.00  0.00    +0.154 HD
BRANCH  18  20
ATOM     20  C9  CHE B   04     24.756  69.453   7.647  0.00  0.00    +0.033 A 
ATOM     21  C10 CHE B   04     23.549  69.594   3.835  0.00  0.00    +0.025 A 
ATOM     22  C11 CHE B   04     25.173  69.317   5.436  0.00  0.00    +0.030 A 
ATOM     23  C12 CHE B   04     24.955  69.230   0.285  0.00  0.00    +0.069 A 
ATOM     24  N3  CHE B   04     27.534  68.838   4.730  0.00  0.00    -0.267 N 
ATOM     25  C13 CHE B   04     26.750  68.892   0.791  0.00  0.00    +0.173 C 
ATOM     26  N4  CHE B   04     28.913  68.611   6.404  0.00  0.00    -0.179 NA
ATOM     27  C14 CHE B   04     26.880  68.892   1.795  0.00  0.00    +0.143 A 
ATOM     28  C15 CHE B   04     26.462  69.055   5.050  0.00  0.00    +0.021 A 
ATOM     29  C16 CHE B   04     24.828  69.334   3.452  0.00  0.00    +0.034 A 
ENDBRANCH  18  20
ENDBRANCH   3  18
TORSDOF 3
ENDMDL
