MODEL 1
REMARK VINA RESULT:      -9.8      0.000      0.000
REMARK  Name = dock_mp/CHEMBL5/CHEMBL552232.pdb
REMARK  5 active torsions:
REMARK  status: ('A' for Active; 'I' for Inactive)
REMARK    1  A    between atoms: C1_1  and  C2_2
REMARK    2  A    between atoms: C6_6  and  C7_7
REMARK    3  A    between atoms: C8_9  and  C9_10
REMARK    4  A    between atoms: C11_12  and  N2_13
REMARK    5  A    between atoms: N2_13  and  C12_14
REMARK                            x       y       z     vdW  Elec       q    Type
REMARK                         _______ _______ _______ _____ _____    ______ ____
ROOT
ATOM      1  C7  CHE B   02     16.441  66.602  10.988  0.00  0.00    +0.180 A 
ATOM      2  N1  CHE B   02     21.846  70.874   6.895  0.00  0.00    -0.231 NA
ATOM      3  C8  CHE B   02     16.378  66.862   9.025  0.00  0.00    +0.044 A 
ATOM      4  C9  CHE B   02     17.580  67.874   7.709  0.00  0.00    +0.066 C 
ATOM      5  C10 CHE B   02     16.700  67.264   7.818  0.00  0.00    +0.067 A 
ATOM      6  C11 CHE B   02     19.016  68.973   6.851  0.00  0.00    +0.127 A 
ATOM      7  N4  CHE B   02     18.175  68.095   8.878  0.00  0.00    -0.211 NA
ENDROOT
BRANCH   1  13
ATOM      8  C1  CHE B   02     22.908  70.999  10.836  0.00  0.00    +0.065 C 
ATOM      9  C2  CHE B   02     23.435  71.437   9.985  0.00  0.00    +0.039 A 
ATOM     10  C3  CHE B   02     23.077  71.080  11.190  0.00  0.00    +0.023 A 
ATOM     11  C4  CHE B   02     22.891  70.991  10.801  0.00  0.00    +0.004 A 
ATOM     12  C5  CHE B   02     21.637  70.204  10.132  0.00  0.00    +0.031 A 
ATOM     13  C6  CHE B   02     19.155  68.459  10.803  0.00  0.00    +0.108 A 
ATOM     14  N5  CHE B   02     17.206  66.969  12.587  0.00  0.00    -0.249 NA
ENDBRANCH   1  13
BRANCH   6  15
ATOM     15  N2  CHE B   02     15.796  66.646   7.883  0.00  0.00    -0.299 N 
ATOM     16  H11 CHE B   02     14.460  65.655   9.019  0.00  0.00    +0.154 HD
BRANCH  15  17
ATOM     17  C12 CHE B   02     19.586  69.478   3.977  0.00  0.00    +0.035 A 
ATOM     18  C13 CHE B   02     17.036  67.645   4.440  0.00  0.00    +0.043 A 
ATOM     19  C14 CHE B   02     14.418  65.769   4.753  0.00  0.00    +0.112 A 
ATOM     20  N3  CHE B   02     12.910  64.670   5.499  0.00  0.00    -0.263 NA
ATOM     21  C15 CHE B   02     17.606  68.078   3.650  0.00  0.00    +0.112 A 
ATOM     22  C16 CHE B   02     17.367  67.856   5.194  0.00  0.00    +0.043 A 
ENDBRANCH  15  17
ENDBRANCH   6  15
TORSDOF 3
ENDMDL
MODEL 2
REMARK VINA RESULT:      -8.8      2.834      4.337
REMARK  Name = dock_mp/CHEMBL5/CHEMBL552232.pdb
REMARK  5 active torsions:
REMARK  status: ('A' for Active; 'I' for Inactive)
REMARK    1  A    between atoms: C1_1  and  C2_2
REMARK    2  A    between atoms: C6_6  and  C7_7
REMARK    3  A    between atoms: C8_9  and  C9_10
REMARK    4  A    between atoms: C11_12  and  N2_13
REMARK    5  A    between atoms: N2_13  and  C12_14
REMARK                            x       y       z     vdW  Elec       q    Type
REMARK                         _______ _______ _______ _____ _____    ______ ____
ROOT
ATOM      1  C7  CHE B   02     14.898  67.705   7.219  0.00  0.00    +0.180 A 
ATOM      2  N1  CHE B   02     22.105  68.226  10.683  0.00  0.00    -0.231 NA
ATOM      3  C8  CHE B   02     16.602  67.732   6.210  0.00  0.00    +0.044 A 
ATOM      4  C9  CHE B   02     18.566  67.855   6.785  0.00  0.00    +0.066 C 
ATOM      5  C10 CHE B   02     17.888  67.779   5.952  0.00  0.00    +0.067 A 
ATOM      6  C11 CHE B   02     20.277  67.990   7.815  0.00  0.00    +0.127 A 
ATOM      7  N4  CHE B   02     17.919  67.885   7.947  0.00  0.00    -0.211 NA
ENDROOT
BRANCH   1  13
ATOM      8  C1  CHE B   02     19.361  68.077  13.631  0.00  0.00    +0.065 C 
ATOM      9  C2  CHE B   02     20.291  68.624  13.804  0.00  0.00    +0.039 A 
ATOM     10  C3  CHE B   02     19.237  67.867  13.948  0.00  0.00    +0.023 A 
ATOM     11  C4  CHE B   02     19.374  68.098  13.600  0.00  0.00    +0.004 A 
ATOM     12  C5  CHE B   02     18.979  68.456  12.065  0.00  0.00    +0.031 A 
ATOM     13  C6  CHE B   02     16.853  67.936   9.860  0.00  0.00    +0.108 A 
ATOM     14  N5  CHE B   02     14.334  66.753   8.651  0.00  0.00    -0.249 NA
ENDBRANCH   1  13
BRANCH   6  15
ATOM     15  N2  CHE B   02     17.235  67.702   5.074  0.00  0.00    -0.299 N 
ATOM     16  H11 CHE B   02     15.483  67.167   4.236  0.00  0.00    +0.154 HD
BRANCH  15  17
ATOM     17  C12 CHE B   02     22.675  69.621   7.163  0.00  0.00    +0.035 A 
ATOM     18  C13 CHE B   02     20.571  69.483   4.789  0.00  0.00    +0.043 A 
ATOM     19  C14 CHE B   02     18.530  69.427   2.280  0.00  0.00    +0.112 A 
ATOM     20  N3  CHE B   02     16.947  69.094   1.088  0.00  0.00    -0.263 NA
ATOM     21  C15 CHE B   02     21.535  69.879   5.013  0.00  0.00    +0.112 A 
ATOM     22  C16 CHE B   02     20.259  69.067   5.462  0.00  0.00    +0.043 A 
ENDBRANCH  15  17
ENDBRANCH   6  15
TORSDOF 3
ENDMDL
MODEL 3
REMARK VINA RESULT:      -7.3      2.710      3.159
REMARK  Name = dock_mp/CHEMBL5/CHEMBL552232.pdb
REMARK  5 active torsions:
REMARK  status: ('A' for Active; 'I' for Inactive)
REMARK    1  A    between atoms: C1_1  and  C2_2
REMARK    2  A    between atoms: C6_6  and  C7_7
REMARK    3  A    between atoms: C8_9  and  C9_10
REMARK    4  A    between atoms: C11_12  and  N2_13
REMARK    5  A    between atoms: N2_13  and  C12_14
REMARK                            x       y       z     vdW  Elec       q    Type
REMARK                         _______ _______ _______ _____ _____    ______ ____
ROOT
ATOM      1  C7  CHE B   02     15.129  67.134   8.926  0.00  0.00    +0.180 A 
ATOM      2  N1  CHE B   02     22.643  69.762   9.854  0.00  0.00    -0.231 NA
ATOM      3  C8  CHE B   02     16.190  67.964   7.474  0.00  0.00    +0.044 A 
ATOM      4  C9  CHE B   02     18.092  68.722   7.390  0.00  0.00    +0.066 C 
ATOM      5  C10 CHE B   02     17.187  68.533   6.838  0.00  0.00    +0.067 A 
ATOM      6  C11 CHE B   02     19.957  69.322   7.800  0.00  0.00    +0.127 A 
ATOM      7  N4  CHE B   02     17.995  68.318   8.653  0.00  0.00    -0.211 NA
ENDROOT
BRANCH   1  13
ATOM      8  C1  CHE B   02     21.617  68.086  13.190  0.00  0.00    +0.065 C 
ATOM      9  C2  CHE B   02     22.018  68.986  13.661  0.00  0.00    +0.039 A 
ATOM     10  C3  CHE B   02     21.842  67.760  13.248  0.00  0.00    +0.023 A 
ATOM     11  C4  CHE B   02     21.595  68.118  13.184  0.00  0.00    +0.004 A 
ATOM     12  C5  CHE B   02     20.230  68.619  12.460  0.00  0.00    +0.031 A 
ATOM     13  C6  CHE B   02     17.834  67.652  10.734  0.00  0.00    +0.108 A 
ATOM     14  N5  CHE B   02     16.144  65.659   9.193  0.00  0.00    -0.249 NA
ENDBRANCH   1  13
BRANCH   6  15
ATOM     15  N2  CHE B   02     16.285  68.360   6.239  0.00  0.00    -0.299 N 
ATOM     16  H11 CHE B   02     14.335  67.862   6.149  0.00  0.00    +0.154 HD
BRANCH  15  17
ATOM     17  C12 CHE B   02     22.226  69.865   5.957  0.00  0.00    +0.035 A 
ATOM     18  C13 CHE B   02     19.509  69.229   4.441  0.00  0.00    +0.043 A 
ATOM     19  C14 CHE B   02     16.818  68.604   2.758  0.00  0.00    +0.112 A 
ATOM     20  N3  CHE B   02     14.933  68.146   2.235  0.00  0.00    -0.263 NA
ATOM     21  C15 CHE B   02     20.523  69.491   4.240  0.00  0.00    +0.112 A 
ATOM     22  C16 CHE B   02     19.381  69.170   5.280  0.00  0.00    +0.043 A 
ENDBRANCH  15  17
ENDBRANCH   6  15
TORSDOF 3
ENDMDL
