MODEL 1
REMARK VINA RESULT:     -10.8      0.000      0.000
REMARK  Name = dock_mp/CHEMBL5/CHEMBL565422.pdb
REMARK  7 active torsions:
REMARK  status: ('A' for Active; 'I' for Inactive)
REMARK    1  A    between atoms: C1_1  and  C2_2
REMARK    2  A    between atoms: C6_6  and  C7_7
REMARK    3  A    between atoms: C8_9  and  C9_10
REMARK    4  A    between atoms: C9_10  and  N2_11
REMARK    5  A    between atoms: N2_11  and  C10_12
REMARK    6  A    between atoms: C13_15  and  C14_16
REMARK    7  A    between atoms: C17_22  and  C18_23
REMARK                            x       y       z     vdW  Elec       q    Type
REMARK                         _______ _______ _______ _____ _____    ______ ____
ROOT
ATOM      1  C7  CHE B   04     20.146  67.058   8.784  0.00  0.00    +0.093 A 
ATOM      2  N1  CHE B   04     21.303  67.360   9.907  0.00  0.00    -0.339 N 
ATOM      3  C8  CHE B   04     21.217  69.864   6.687  0.00  0.00    +0.125 A 
ATOM      4  N4  CHE B   04     21.145  67.875   9.064  0.00  0.00    -0.230 NA
ATOM      5  C17 CHE B   04     19.801  68.063   7.089  0.00  0.00    +0.098 A 
ATOM      6  H7  CHE B   04     21.245  68.599   8.293  0.00  0.00    +0.167 HD
ENDROOT
BRANCH   5   7
ATOM      7  C18 CHE B   04     18.886  67.959   6.034  0.00  0.00    +0.000 C 
ATOM      8  C19 CHE B   04     17.610  68.774  10.897  0.00  0.00    +0.007 C 
ATOM      9  C20 CHE B   04     17.140  67.597   2.938  0.00  0.00    +0.118 C 
ATOM     10  N5  CHE B   04     16.510  67.779   3.884  0.00  0.00    -0.340 N 
ATOM     11  C21 CHE B   04     15.154  68.597   8.742  0.00  0.00    +0.083 C 
ATOM     12  C22 CHE B   04     15.158  68.297   6.761  0.00  0.00    +0.083 C 
ATOM     13  N6  CHE B   04     16.189  67.945   4.852  0.00  0.00    -0.340 N 
ATOM     14  C23 CHE B   04     17.322  68.038   5.923  0.00  0.00    +0.117 C 
ATOM     15  C24 CHE B   04     18.215  68.293   7.967  0.00  0.00    -0.002 C 
ATOM     16  C25 CHE B   04     19.148  67.796   5.062  0.00  0.00    +0.007 C 
ATOM     17  H19 CHE B   04     16.851  67.611   2.918  0.00  0.00    +0.146 HD
ATOM     18  H22 CHE B   04     15.598  68.875  10.754  0.00  0.00    +0.146 HD
ENDBRANCH   5   7
BRANCH   1  24
ATOM     19  C1  CHE B   04     18.587  68.791   4.237  0.00  0.00    +0.065 C 
ATOM     20  C2  CHE B   04     18.123  68.561   4.189  0.00  0.00    +0.039 A 
ATOM     21  C3  CHE B   04     16.670  68.842   2.283  0.00  0.00    +0.023 A 
ATOM     22  C4  CHE B   04     17.141  65.567   8.468  0.00  0.00    +0.004 A 
ATOM     23  C5  CHE B   04     17.374  68.189   4.110  0.00  0.00    +0.030 A 
ATOM     24  C6  CHE B   04     18.818  67.903   6.015  0.00  0.00    +0.090 A 
ATOM     25  N7  CHE B   04     18.650  69.825   2.491  0.00  0.00    -0.250 NA
ENDBRANCH   1  24
BRANCH   3  26
ATOM     26  C9  CHE B   04     22.329  70.773   6.999  0.00  0.00    +0.175 C 
BRANCH  26  27
ATOM     27  N2  CHE B   04     22.781  70.793   8.063  0.00  0.00    -0.337 N 
ATOM     28  H10 CHE B   04     22.231  70.959   7.977  0.00  0.00    +0.147 HD
BRANCH  27  29
ATOM     29  C10 CHE B   04     24.721  69.267   2.411  0.00  0.00    +0.027 A 
ATOM     30  C11 CHE B   04     24.457  69.741   8.414  0.00  0.00    +0.023 A 
ATOM     31  C12 CHE B   04     26.106  68.500   4.720  0.00  0.00    +0.015 A 
ATOM     32  C13 CHE B   04     26.283  68.594   8.797  0.00  0.00    +0.037 A 
ATOM     33  C15 CHE B   04     25.451  69.271  11.652  0.00  0.00    +0.015 A 
ATOM     34  C16 CHE B   04     24.807  69.470   7.478  0.00  0.00    +0.023 A 
BRANCH  32  35
ATOM     35  C14 CHE B   04     27.110  68.229  11.999  0.00  0.00    +0.242 C 
ATOM     36  O1  CHE B   04     27.419  66.643   7.248  0.00  0.00    -0.270 OA
ATOM     37  N3  CHE B   04     27.647  67.531  12.186  0.00  0.00    -0.325 N 
ATOM     38  H13 CHE B   04     27.886  66.273   8.382  0.00  0.00    +0.145 HD
ATOM     39  H14 CHE B   04     27.838  67.283  12.252  0.00  0.00    +0.145 HD
ENDBRANCH  32  35
ENDBRANCH  27  29
ENDBRANCH  26  27
ENDBRANCH   3  26
TORSDOF 6
ENDMDL
MODEL 2
REMARK VINA RESULT:     -10.7      3.474      9.466
REMARK  Name = dock_mp/CHEMBL5/CHEMBL565422.pdb
REMARK  7 active torsions:
REMARK  status: ('A' for Active; 'I' for Inactive)
REMARK    1  A    between atoms: C1_1  and  C2_2
REMARK    2  A    between atoms: C6_6  and  C7_7
REMARK    3  A    between atoms: C8_9  and  C9_10
REMARK    4  A    between atoms: C9_10  and  N2_11
REMARK    5  A    between atoms: N2_11  and  C10_12
REMARK    6  A    between atoms: C13_15  and  C14_16
REMARK    7  A    between atoms: C17_22  and  C18_23
REMARK                            x       y       z     vdW  Elec       q    Type
REMARK                         _______ _______ _______ _____ _____    ______ ____
ROOT
ATOM      1  C7  CHE B   04     25.722  67.632   8.865  0.00  0.00    +0.093 A 
ATOM      2  N1  CHE B   04     25.793  67.963   7.260  0.00  0.00    -0.339 N 
ATOM      3  C8  CHE B   04     22.104  68.182   8.986  0.00  0.00    +0.125 A 
ATOM      4  N4  CHE B   04     24.973  67.971   7.832  0.00  0.00    -0.230 NA
ATOM      5  C17 CHE B   04     24.104  67.639  10.041  0.00  0.00    +0.098 A 
ATOM      6  H7  CHE B   04     23.960  68.067   8.138  0.00  0.00    +0.167 HD
ENDROOT
BRANCH   5   7
ATOM      7  C18 CHE B   04     23.851  67.390  11.395  0.00  0.00    +0.000 C 
ATOM      8  C19 CHE B   04     26.827  71.136   9.649  0.00  0.00    +0.007 C 
ATOM      9  C20 CHE B   04     22.801  66.218  14.602  0.00  0.00    +0.118 C 
ATOM     10  N5  CHE B   04     23.506  67.127  14.575  0.00  0.00    -0.340 N 
ATOM     11  C21 CHE B   04     26.505  70.908  12.897  0.00  0.00    +0.083 C 
ATOM     12  C22 CHE B   04     25.463  69.626  14.031  0.00  0.00    +0.083 C 
ATOM     13  N6  CHE B   04     24.120  67.905  14.282  0.00  0.00    -0.340 N 
ATOM     14  C23 CHE B   04     24.309  68.059  12.739  0.00  0.00    +0.117 C 
ATOM     15  C24 CHE B   04     25.089  68.958  10.835  0.00  0.00    -0.002 C 
ATOM     16  C25 CHE B   04     23.254  66.638  11.739  0.00  0.00    +0.007 C 
ATOM     17  H19 CHE B   04     22.886  66.341  14.851  0.00  0.00    +0.146 HD
ATOM     18  H22 CHE B   04     27.416  71.997  11.378  0.00  0.00    +0.146 HD
ENDBRANCH   5   7
BRANCH   1  24
ATOM     19  C1  CHE B   04     22.441  67.738  12.779  0.00  0.00    +0.065 C 
ATOM     20  C2  CHE B   04     22.617  67.350  13.077  0.00  0.00    +0.039 A 
ATOM     21  C3  CHE B   04     21.620  66.698  15.176  0.00  0.00    +0.023 A 
ATOM     22  C4  CHE B   04     26.864  65.116  10.794  0.00  0.00    +0.004 A 
ATOM     23  C5  CHE B   04     22.902  66.723  13.558  0.00  0.00    +0.030 A 
ATOM     24  C6  CHE B   04     23.902  67.367  11.465  0.00  0.00    +0.090 A 
ATOM     25  N7  CHE B   04     20.867  68.355  13.904  0.00  0.00    -0.250 NA
ENDBRANCH   1  24
BRANCH   3  26
ATOM     26  C9  CHE B   04     21.269  68.560   7.836  0.00  0.00    +0.175 C 
BRANCH  26  27
ATOM     27  N2  CHE B   04     20.216  68.102   7.708  0.00  0.00    -0.337 N 
ATOM     28  H10 CHE B   04     20.429  68.197   8.239  0.00  0.00    +0.147 HD
BRANCH  27  29
ATOM     29  C10 CHE B   04     24.728  70.050   3.981  0.00  0.00    +0.027 A 
ATOM     30  C11 CHE B   04     19.335  68.163   5.903  0.00  0.00    +0.023 A 
ATOM     31  C12 CHE B   04     22.156  69.474   3.034  0.00  0.00    +0.015 A 
ATOM     32  C13 CHE B   04     18.375  68.229   3.935  0.00  0.00    +0.037 A 
ATOM     33  C15 CHE B   04     16.047  67.261   5.650  0.00  0.00    +0.015 A 
ATOM     34  C16 CHE B   04     20.073  68.489   5.253  0.00  0.00    +0.023 A 
BRANCH  32  35
ATOM     35  C14 CHE B   04     15.175  67.321   3.863  0.00  0.00    +0.242 C 
ATOM     36  O1  CHE B   04     19.151  69.327   1.550  0.00  0.00    -0.270 OA
ATOM     37  N3  CHE B   04     14.743  67.477   3.089  0.00  0.00    -0.325 N 
ATOM     38  H13 CHE B   04     17.931  69.080   1.250  0.00  0.00    +0.145 HD
ATOM     39  H14 CHE B   04     14.589  67.533   2.814  0.00  0.00    +0.145 HD
ENDBRANCH  32  35
ENDBRANCH  27  29
ENDBRANCH  26  27
ENDBRANCH   3  26
TORSDOF 6
ENDMDL
MODEL 3
REMARK VINA RESULT:     -10.6      2.998      9.386
REMARK  Name = dock_mp/CHEMBL5/CHEMBL565422.pdb
REMARK  7 active torsions:
REMARK  status: ('A' for Active; 'I' for Inactive)
REMARK    1  A    between atoms: C1_1  and  C2_2
REMARK    2  A    between atoms: C6_6  and  C7_7
REMARK    3  A    between atoms: C8_9  and  C9_10
REMARK    4  A    between atoms: C9_10  and  N2_11
REMARK    5  A    between atoms: N2_11  and  C10_12
REMARK    6  A    between atoms: C13_15  and  C14_16
REMARK    7  A    between atoms: C17_22  and  C18_23
REMARK                            x       y       z     vdW  Elec       q    Type
REMARK                         _______ _______ _______ _____ _____    ______ ____
ROOT
ATOM      1  C7  CHE B   04     26.397  69.581   8.557  0.00  0.00    +0.093 A 
ATOM      2  N1  CHE B   04     26.444  70.021   6.977  0.00  0.00    -0.339 N 
ATOM      3  C8  CHE B   04     22.756  69.930   8.717  0.00  0.00    +0.125 A 
ATOM      4  N4  CHE B   04     25.627  69.948   7.550  0.00  0.00    -0.230 NA
ATOM      5  C17 CHE B   04     24.786  69.424   9.731  0.00  0.00    +0.098 A 
ATOM      6  H7  CHE B   04     24.612  69.970   7.862  0.00  0.00    +0.167 HD
ENDROOT
BRANCH   5   7
ATOM      7  C18 CHE B   04     24.553  69.073  11.067  0.00  0.00    +0.000 C 
ATOM      8  C19 CHE B   04     26.577  65.970   7.572  0.00  0.00    +0.007 C 
ATOM      9  C20 CHE B   04     23.706  68.846  14.530  0.00  0.00    +0.118 C 
ATOM     10  N5  CHE B   04     24.166  67.915  14.035  0.00  0.00    -0.340 N 
ATOM     11  C21 CHE B   04     26.202  64.746  10.583  0.00  0.00    +0.083 C 
ATOM     12  C22 CHE B   04     25.466  65.566  12.256  0.00  0.00    +0.083 C 
ATOM     13  N6  CHE B   04     24.580  67.240  13.371  0.00  0.00    -0.340 N 
ATOM     14  C23 CHE B   04     24.782  67.773  11.917  0.00  0.00    +0.117 C 
ATOM     15  C24 CHE B   04     25.386  67.697   9.756  0.00  0.00    -0.002 C 
ATOM     16  C25 CHE B   04     24.147  69.698  11.762  0.00  0.00    +0.007 C 
ATOM     17  H19 CHE B   04     23.748  68.606  14.687  0.00  0.00    +0.146 HD
ATOM     18  H22 CHE B   04     26.872  64.298   8.666  0.00  0.00    +0.146 HD
ENDBRANCH   5   7
BRANCH   1  24
ATOM     19  C1  CHE B   04     23.065  68.441  12.258  0.00  0.00    +0.065 C 
ATOM     20  C2  CHE B   04     23.310  68.619  12.681  0.00  0.00    +0.039 A 
ATOM     21  C3  CHE B   04     22.415  68.481  14.918  0.00  0.00    +0.023 A 
ATOM     22  C4  CHE B   04     27.985  70.733  11.297  0.00  0.00    +0.004 A 
ATOM     23  C5  CHE B   04     23.706  68.906  13.364  0.00  0.00    +0.030 A 
ATOM     24  C6  CHE B   04     24.605  69.047  11.135  0.00  0.00    +0.090 A 
ATOM     25  N7  CHE B   04     21.369  67.722  13.112  0.00  0.00    -0.250 NA
ENDBRANCH   1  24
BRANCH   3  26
ATOM     26  C9  CHE B   04     21.898  70.340   7.595  0.00  0.00    +0.175 C 
BRANCH  26  27
ATOM     27  N2  CHE B   04     20.764  70.115   7.620  0.00  0.00    -0.337 N 
ATOM     28  H10 CHE B   04     21.054  70.202   8.115  0.00  0.00    +0.147 HD
BRANCH  27  29
ATOM     29  C10 CHE B   04     25.109  70.723   3.285  0.00  0.00    +0.027 A 
ATOM     30  C11 CHE B   04     19.896  69.346   5.979  0.00  0.00    +0.023 A 
ATOM     31  C12 CHE B   04     22.608  69.588   2.740  0.00  0.00    +0.015 A 
ATOM     32  C13 CHE B   04     18.949  68.508   4.190  0.00  0.00    +0.037 A 
ATOM     33  C15 CHE B   04     16.705  68.141   6.223  0.00  0.00    +0.015 A 
ATOM     34  C16 CHE B   04     20.606  69.435   5.230  0.00  0.00    +0.023 A 
BRANCH  32  35
ATOM     35  C14 CHE B   04     15.845  67.380   4.598  0.00  0.00    +0.242 C 
ATOM     36  O1  CHE B   04     19.348  69.420   1.640  0.00  0.00    -0.270 OA
ATOM     37  N3  CHE B   04     15.314  67.431   3.873  0.00  0.00    -0.325 N 
ATOM     38  H13 CHE B   04     18.124  69.062   1.518  0.00  0.00    +0.145 HD
ATOM     39  H14 CHE B   04     15.125  67.449   3.616  0.00  0.00    +0.145 HD
ENDBRANCH  32  35
ENDBRANCH  27  29
ENDBRANCH  26  27
ENDBRANCH   3  26
TORSDOF 6
ENDMDL
MODEL 4
REMARK VINA RESULT:     -10.5      2.632      3.994
REMARK  Name = dock_mp/CHEMBL5/CHEMBL565422.pdb
REMARK  7 active torsions:
REMARK  status: ('A' for Active; 'I' for Inactive)
REMARK    1  A    between atoms: C1_1  and  C2_2
REMARK    2  A    between atoms: C6_6  and  C7_7
REMARK    3  A    between atoms: C8_9  and  C9_10
REMARK    4  A    between atoms: C9_10  and  N2_11
REMARK    5  A    between atoms: N2_11  and  C10_12
REMARK    6  A    between atoms: C13_15  and  C14_16
REMARK    7  A    between atoms: C17_22  and  C18_23
REMARK                            x       y       z     vdW  Elec       q    Type
REMARK                         _______ _______ _______ _____ _____    ______ ____
ROOT
ATOM      1  C7  CHE B   04     18.072  68.640   9.537  0.00  0.00    +0.093 A 
ATOM      2  N1  CHE B   04     18.654  68.375  11.048  0.00  0.00    -0.339 N 
ATOM      3  C8  CHE B   04     21.414  68.508   8.047  0.00  0.00    +0.125 A 
ATOM      4  N4  CHE B   04     19.191  68.436  10.206  0.00  0.00    -0.230 NA
ATOM      5  C17 CHE B   04     19.113  68.769   7.834  0.00  0.00    +0.098 A 
ATOM      6  H7  CHE B   04     20.017  68.445   9.537  0.00  0.00    +0.167 HD
ENDROOT
BRANCH   5   7
ATOM      7  C18 CHE B   04     18.802  68.985   6.486  0.00  0.00    +0.000 C 
ATOM      8  C19 CHE B   04     16.562  65.499   9.448  0.00  0.00    +0.007 C 
ATOM      9  C20 CHE B   04     18.516  70.043   3.086  0.00  0.00    +0.118 C 
ATOM     10  N5  CHE B   04     17.825  69.191   3.436  0.00  0.00    -0.340 N 
ATOM     11  C21 CHE B   04     15.533  65.673   6.347  0.00  0.00    +0.083 C 
ATOM     12  C22 CHE B   04     16.101  66.859   4.835  0.00  0.00    +0.083 C 
ATOM     13  N6  CHE B   04     17.334  68.467   3.986  0.00  0.00    -0.340 N 
ATOM     14  C23 CHE B   04     17.787  68.341   5.476  0.00  0.00    +0.117 C 
ATOM     15  C24 CHE B   04     17.801  67.524   7.567  0.00  0.00    -0.002 C 
ATOM     16  C25 CHE B   04     19.254  69.685   5.898  0.00  0.00    +0.007 C 
ATOM     17  H19 CHE B   04     18.328  69.924   2.899  0.00  0.00    +0.146 HD
ATOM     18  H22 CHE B   04     15.257  64.671   8.148  0.00  0.00    +0.146 HD
ENDBRANCH   5   7
BRANCH   1  24
ATOM     19  C1  CHE B   04     19.761  69.006   4.730  0.00  0.00    +0.065 C 
ATOM     20  C2  CHE B   04     19.336  69.170   4.479  0.00  0.00    +0.039 A 
ATOM     21  C3  CHE B   04     19.251  69.611   2.108  0.00  0.00    +0.023 A 
ATOM     22  C4  CHE B   04     15.317  69.705   7.915  0.00  0.00    +0.004 A 
ATOM     23  C5  CHE B   04     18.649  69.436   4.075  0.00  0.00    +0.030 A 
ATOM     24  C6  CHE B   04     18.725  68.999   6.441  0.00  0.00    +0.090 A 
ATOM     25  N7  CHE B   04     21.066  68.909   3.177  0.00  0.00    -0.250 NA
ENDBRANCH   1  24
BRANCH   3  26
ATOM     26  C9  CHE B   04     22.661  68.281   8.792  0.00  0.00    +0.175 C 
BRANCH  26  27
ATOM     27  N2  CHE B   04     23.648  68.761   8.430  0.00  0.00    -0.337 N 
ATOM     28  H10 CHE B   04     23.262  68.564   8.045  0.00  0.00    +0.147 HD
BRANCH  27  29
ATOM     29  C10 CHE B   04     20.991  67.546  13.862  0.00  0.00    +0.027 A 
ATOM     30  C11 CHE B   04     24.867  69.655   9.755  0.00  0.00    +0.023 A 
ATOM     31  C12 CHE B   04     23.355  69.034  13.658  0.00  0.00    +0.015 A 
ATOM     32  C13 CHE B   04     26.195  70.628  11.199  0.00  0.00    +0.037 A 
ATOM     33  C15 CHE B   04     27.624  71.309   8.592  0.00  0.00    +0.015 A 
ATOM     34  C16 CHE B   04     24.444  69.466  10.682  0.00  0.00    +0.023 A 
BRANCH  32  35
ATOM     35  C14 CHE B   04     28.831  72.194   9.904  0.00  0.00    +0.242 C 
ATOM     36  O1  CHE B   04     26.574  70.074  13.854  0.00  0.00    -0.270 OA
ATOM     37  N3  CHE B   04     29.510  72.349  10.474  0.00  0.00    -0.325 N 
ATOM     38  H13 CHE B   04     27.694  70.651  13.625  0.00  0.00    +0.145 HD
ATOM     39  H14 CHE B   04     29.751  72.405  10.676  0.00  0.00    +0.145 HD
ENDBRANCH  32  35
ENDBRANCH  27  29
ENDBRANCH  26  27
ENDBRANCH   3  26
TORSDOF 6
ENDMDL
MODEL 5
REMARK VINA RESULT:     -10.4      2.557      3.288
REMARK  Name = dock_mp/CHEMBL5/CHEMBL565422.pdb
REMARK  7 active torsions:
REMARK  status: ('A' for Active; 'I' for Inactive)
REMARK    1  A    between atoms: C1_1  and  C2_2
REMARK    2  A    between atoms: C6_6  and  C7_7
REMARK    3  A    between atoms: C8_9  and  C9_10
REMARK    4  A    between atoms: C9_10  and  N2_11
REMARK    5  A    between atoms: N2_11  and  C10_12
REMARK    6  A    between atoms: C13_15  and  C14_16
REMARK    7  A    between atoms: C17_22  and  C18_23
REMARK                            x       y       z     vdW  Elec       q    Type
REMARK                         _______ _______ _______ _____ _____    ______ ____
ROOT
ATOM      1  C7  CHE B   04     17.944  68.674   9.678  0.00  0.00    +0.093 A 
ATOM      2  N1  CHE B   04     18.449  68.385  11.212  0.00  0.00    -0.339 N 
ATOM      3  C8  CHE B   04     21.339  68.408   8.333  0.00  0.00    +0.125 A 
ATOM      4  N4  CHE B   04     19.024  68.425  10.394  0.00  0.00    -0.230 NA
ATOM      5  C17 CHE B   04     19.062  68.761   8.022  0.00  0.00    +0.098 A 
ATOM      6  H7  CHE B   04     19.878  68.400   9.762  0.00  0.00    +0.167 HD
ENDROOT
BRANCH   5   7
ATOM      7  C18 CHE B   04     18.819  68.990   6.662  0.00  0.00    +0.000 C 
ATOM      8  C19 CHE B   04     16.425  65.486   9.479  0.00  0.00    +0.007 C 
ATOM      9  C20 CHE B   04     18.704  70.078   3.261  0.00  0.00    +0.118 C 
ATOM     10  N5  CHE B   04     17.994  69.226   3.570  0.00  0.00    -0.340 N 
ATOM     11  C21 CHE B   04     15.551  65.690   6.332  0.00  0.00    +0.083 C 
ATOM     12  C22 CHE B   04     16.196  66.887   4.861  0.00  0.00    +0.083 C 
ATOM     13  N6  CHE B   04     17.475  68.499   4.088  0.00  0.00    -0.340 N 
ATOM     14  C23 CHE B   04     17.853  68.358   5.597  0.00  0.00    +0.117 C 
ATOM     15  C24 CHE B   04     17.762  67.523   7.679  0.00  0.00    -0.002 C 
ATOM     16  C25 CHE B   04     19.301  69.693   6.103  0.00  0.00    +0.007 C 
ATOM     17  H19 CHE B   04     18.526  69.961   3.065  0.00  0.00    +0.146 HD
ATOM     18  H22 CHE B   04     15.183  64.673   8.109  0.00  0.00    +0.146 HD
ENDBRANCH   5   7
BRANCH   1  24
ATOM     19  C1  CHE B   04     19.859  68.992   4.952  0.00  0.00    +0.065 C 
ATOM     20  C2  CHE B   04     19.448  69.160   4.681  0.00  0.00    +0.039 A 
ATOM     21  C3  CHE B   04     19.478  69.587   2.307  0.00  0.00    +0.023 A 
ATOM     22  C4  CHE B   04     15.280  69.760   7.923  0.00  0.00    +0.004 A 
ATOM     23  C5  CHE B   04     18.784  69.431   4.244  0.00  0.00    +0.030 A 
ATOM     24  C6  CHE B   04     18.745  69.007   6.613  0.00  0.00    +0.090 A 
ATOM     25  N7  CHE B   04     21.233  68.871   3.463  0.00  0.00    -0.250 NA
ENDBRANCH   1  24
BRANCH   3  26
ATOM     26  C9  CHE B   04     22.543  68.130   9.131  0.00  0.00    +0.175 C 
BRANCH  26  27
ATOM     27  N2  CHE B   04     22.443  67.782  10.229  0.00  0.00    -0.337 N 
ATOM     28  H10 CHE B   04     22.006  68.063   9.972  0.00  0.00    +0.147 HD
BRANCH  27  29
ATOM     29  C10 CHE B   04     26.744  67.494   5.816  0.00  0.00    +0.027 A 
ATOM     30  C11 CHE B   04     23.889  66.659  11.060  0.00  0.00    +0.023 A 
ATOM     31  C12 CHE B   04     27.063  66.229   8.294  0.00  0.00    +0.015 A 
ATOM     32  C13 CHE B   04     25.464  65.437  11.965  0.00  0.00    +0.037 A 
ATOM     33  C15 CHE B   04     23.433  65.488  14.239  0.00  0.00    +0.015 A 
ATOM     34  C16 CHE B   04     24.628  66.594  10.337  0.00  0.00    +0.023 A 
BRANCH  32  35
ATOM     35  C14 CHE B   04     24.864  64.377  15.062  0.00  0.00    +0.242 C 
ATOM     36  O1  CHE B   04     28.144  65.406  11.406  0.00  0.00    -0.270 OA
ATOM     37  N3  CHE B   04     25.589  64.143  15.541  0.00  0.00    -0.325 N 
ATOM     38  H13 CHE B   04     28.202  64.969  12.608  0.00  0.00    +0.145 HD
ATOM     39  H14 CHE B   04     25.847  64.059  15.711  0.00  0.00    +0.145 HD
ENDBRANCH  32  35
ENDBRANCH  27  29
ENDBRANCH  26  27
ENDBRANCH   3  26
TORSDOF 6
ENDMDL
MODEL 6
REMARK VINA RESULT:     -10.4      2.059      4.306
REMARK  Name = dock_mp/CHEMBL5/CHEMBL565422.pdb
REMARK  7 active torsions:
REMARK  status: ('A' for Active; 'I' for Inactive)
REMARK    1  A    between atoms: C1_1  and  C2_2
REMARK    2  A    between atoms: C6_6  and  C7_7
REMARK    3  A    between atoms: C8_9  and  C9_10
REMARK    4  A    between atoms: C9_10  and  N2_11
REMARK    5  A    between atoms: N2_11  and  C10_12
REMARK    6  A    between atoms: C13_15  and  C14_16
REMARK    7  A    between atoms: C17_22  and  C18_23
REMARK                            x       y       z     vdW  Elec       q    Type
REMARK                         _______ _______ _______ _____ _____    ______ ____
ROOT
ATOM      1  C7  CHE B   04     20.280  67.275   8.636  0.00  0.00    +0.093 A 
ATOM      2  N1  CHE B   04     21.678  67.578   9.438  0.00  0.00    -0.339 N 
ATOM      3  C8  CHE B   04     21.160  69.550   5.905  0.00  0.00    +0.125 A 
ATOM      4  N4  CHE B   04     21.397  67.976   8.564  0.00  0.00    -0.230 NA
ATOM      5  C17 CHE B   04     19.682  68.049   6.891  0.00  0.00    +0.098 A 
ATOM      6  H7  CHE B   04     21.402  68.553   7.672  0.00  0.00    +0.167 HD
ENDROOT
BRANCH   5   7
ATOM      7  C18 CHE B   04     18.555  67.916   6.072  0.00  0.00    +0.000 C 
ATOM      8  C19 CHE B   04     18.401  68.837  11.079  0.00  0.00    +0.007 C 
ATOM      9  C20 CHE B   04     16.158  67.474   3.460  0.00  0.00    +0.118 C 
ATOM     10  N5  CHE B   04     15.756  67.675   4.520  0.00  0.00    -0.340 N 
ATOM     11  C21 CHE B   04     15.523  68.599   9.539  0.00  0.00    +0.083 C 
ATOM     12  C22 CHE B   04     15.084  68.253   7.615  0.00  0.00    +0.083 C 
ATOM     13  N6  CHE B   04     15.660  67.862   5.531  0.00  0.00    -0.340 N 
ATOM     14  C23 CHE B   04     17.005  67.985   6.316  0.00  0.00    +0.117 C 
ATOM     15  C24 CHE B   04     18.333  68.292   8.100  0.00  0.00    -0.002 C 
ATOM     16  C25 CHE B   04     18.591  67.732   5.070  0.00  0.00    +0.007 C 
ATOM     17  H19 CHE B   04     15.872  67.487   3.505  0.00  0.00    +0.146 HD
ATOM     18  H22 CHE B   04     16.407  68.926  11.393  0.00  0.00    +0.146 HD
ENDBRANCH   5   7
BRANCH   1  24
ATOM     19  C1  CHE B   04     17.902  68.646   4.327  0.00  0.00    +0.065 C 
ATOM     20  C2  CHE B   04     17.459  68.375   4.359  0.00  0.00    +0.039 A 
ATOM     21  C3  CHE B   04     15.716  68.439   2.691  0.00  0.00    +0.023 A 
ATOM     22  C4  CHE B   04     17.410  65.520   8.840  0.00  0.00    +0.004 A 
ATOM     23  C5  CHE B   04     16.744  67.938   4.409  0.00  0.00    +0.030 A 
ATOM     24  C6  CHE B   04     18.479  67.869   6.077  0.00  0.00    +0.090 A 
ATOM     25  N7  CHE B   04     17.607  69.596   2.557  0.00  0.00    -0.250 NA
ENDBRANCH   1  24
BRANCH   3  26
ATOM     26  C9  CHE B   04     22.404  70.330   5.825  0.00  0.00    +0.175 C 
BRANCH  26  27
ATOM     27  N2  CHE B   04     22.721  70.815   4.824  0.00  0.00    -0.337 N 
ATOM     28  H10 CHE B   04     22.167  70.836   4.996  0.00  0.00    +0.147 HD
BRANCH  27  29
ATOM     29  C10 CHE B   04     25.506  67.722   9.377  0.00  0.00    +0.027 A 
ATOM     30  C11 CHE B   04     24.218  69.855   3.888  0.00  0.00    +0.023 A 
ATOM     31  C12 CHE B   04     26.392  67.589   6.724  0.00  0.00    +0.015 A 
ATOM     32  C13 CHE B   04     25.849  68.809   2.867  0.00  0.00    +0.037 A 
ATOM     33  C15 CHE B   04     24.579  70.276   0.514  0.00  0.00    +0.015 A 
ATOM     34  C16 CHE B   04     24.706  69.324   4.632  0.00  0.00    +0.023 A 
BRANCH  32  35
ATOM     35  C14 CHE B   04     26.061  69.326  -0.413  0.00  0.00    +0.242 C 
ATOM     36  O1  CHE B   04     27.655  66.924   3.695  0.00  0.00    -0.270 OA
ATOM     37  N3  CHE B   04     26.681  68.836  -0.846  0.00  0.00    -0.325 N 
ATOM     38  H13 CHE B   04     27.946  66.923   2.448  0.00  0.00    +0.145 HD
ATOM     39  H14 CHE B   04     26.901  68.662  -0.999  0.00  0.00    +0.145 HD
ENDBRANCH  32  35
ENDBRANCH  27  29
ENDBRANCH  26  27
ENDBRANCH   3  26
TORSDOF 6
ENDMDL
MODEL 7
REMARK VINA RESULT:     -10.1      3.859     10.014
REMARK  Name = dock_mp/CHEMBL5/CHEMBL565422.pdb
REMARK  7 active torsions:
REMARK  status: ('A' for Active; 'I' for Inactive)
REMARK    1  A    between atoms: C1_1  and  C2_2
REMARK    2  A    between atoms: C6_6  and  C7_7
REMARK    3  A    between atoms: C8_9  and  C9_10
REMARK    4  A    between atoms: C9_10  and  N2_11
REMARK    5  A    between atoms: N2_11  and  C10_12
REMARK    6  A    between atoms: C13_15  and  C14_16
REMARK    7  A    between atoms: C17_22  and  C18_23
REMARK                            x       y       z     vdW  Elec       q    Type
REMARK                         _______ _______ _______ _____ _____    ______ ____
ROOT
ATOM      1  C7  CHE B   04     24.274  69.479   9.706  0.00  0.00    +0.093 A 
ATOM      2  N1  CHE B   04     24.267  69.570   8.068  0.00  0.00    -0.339 N 
ATOM      3  C8  CHE B   04     21.059  67.728   9.788  0.00  0.00    +0.125 A 
ATOM      4  N4  CHE B   04     23.562  69.154   8.643  0.00  0.00    -0.230 NA
ATOM      5  C17 CHE B   04     22.886  68.657  10.888  0.00  0.00    +0.098 A 
ATOM      6  H7  CHE B   04     22.674  68.654   8.944  0.00  0.00    +0.167 HD
ENDROOT
BRANCH   5   7
ATOM      7  C18 CHE B   04     22.721  68.487  12.268  0.00  0.00    +0.000 C 
ATOM      8  C19 CHE B   04     26.320  66.200   9.483  0.00  0.00    +0.007 C 
ATOM      9  C20 CHE B   04     21.752  68.512  15.707  0.00  0.00    +0.118 C 
ATOM     10  N5  CHE B   04     22.650  67.854  15.413  0.00  0.00    -0.340 N 
ATOM     11  C21 CHE B   04     26.287  65.524  12.685  0.00  0.00    +0.083 C 
ATOM     12  C22 CHE B   04     25.087  66.167  14.155  0.00  0.00    +0.083 C 
ATOM     13  N6  CHE B   04     23.401  67.361  14.903  0.00  0.00    -0.340 N 
ATOM     14  C23 CHE B   04     23.462  67.648  13.369  0.00  0.00    +0.117 C 
ATOM     15  C24 CHE B   04     24.237  67.485  11.268  0.00  0.00    -0.002 C 
ATOM     16  C25 CHE B   04     21.998  68.948  12.821  0.00  0.00    +0.007 C 
ATOM     17  H19 CHE B   04     21.889  68.357  15.910  0.00  0.00    +0.146 HD
ATOM     18  H22 CHE B   04     27.274  65.121  10.900  0.00  0.00    +0.146 HD
ENDBRANCH   5   7
BRANCH   1  24
ATOM     19  C1  CHE B   04     21.497  67.507  13.514  0.00  0.00    +0.065 C 
ATOM     20  C2  CHE B   04     21.688  67.759  13.927  0.00  0.00    +0.039 A 
ATOM     21  C3  CHE B   04     20.918  67.421  16.189  0.00  0.00    +0.023 A 
ATOM     22  C4  CHE B   04     25.510  71.112  12.382  0.00  0.00    +0.004 A 
ATOM     23  C5  CHE B   04     21.996  68.166  14.594  0.00  0.00    +0.030 A 
ATOM     24  C6  CHE B   04     22.769  68.509  12.340  0.00  0.00    +0.090 A 
ATOM     25  N7  CHE B   04     20.104  66.345  14.426  0.00  0.00    -0.250 NA
ENDBRANCH   1  24
BRANCH   3  26
ATOM     26  C9  CHE B   04     20.266  67.366   8.605  0.00  0.00    +0.175 C 
BRANCH  26  27
ATOM     27  N2  CHE B   04     20.439  67.913   7.601  0.00  0.00    -0.337 N 
ATOM     28  H10 CHE B   04     20.884  67.813   7.959  0.00  0.00    +0.147 HD
BRANCH  27  29
ATOM     29  C10 CHE B   04     15.629  65.474  10.596  0.00  0.00    +0.027 A 
ATOM     30  C11 CHE B   04     18.954  68.000   6.248  0.00  0.00    +0.023 A 
ATOM     31  C12 CHE B   04     15.433  66.393   7.958  0.00  0.00    +0.015 A 
ATOM     32  C13 CHE B   04     17.337  68.095   4.774  0.00  0.00    +0.037 A 
ATOM     33  C15 CHE B   04     19.620  69.321   3.166  0.00  0.00    +0.015 A 
ATOM     34  C16 CHE B   04     18.129  67.595   6.726  0.00  0.00    +0.023 A 
BRANCH  32  35
ATOM     35  C14 CHE B   04     18.151  69.408   1.827  0.00  0.00    +0.242 C 
ATOM     36  O1  CHE B   04     15.268  66.318   4.534  0.00  0.00    -0.270 OA
ATOM     37  N3  CHE B   04     17.665  69.121   1.125  0.00  0.00    -0.325 N 
ATOM     38  H13 CHE B   04     15.367  66.653   3.302  0.00  0.00    +0.145 HD
ATOM     39  H14 CHE B   04     17.492  69.019   0.876  0.00  0.00    +0.145 HD
ENDBRANCH  32  35
ENDBRANCH  27  29
ENDBRANCH  26  27
ENDBRANCH   3  26
TORSDOF 6
ENDMDL
MODEL 8
REMARK VINA RESULT:     -10.1      3.701      9.999
REMARK  Name = dock_mp/CHEMBL5/CHEMBL565422.pdb
REMARK  7 active torsions:
REMARK  status: ('A' for Active; 'I' for Inactive)
REMARK    1  A    between atoms: C1_1  and  C2_2
REMARK    2  A    between atoms: C6_6  and  C7_7
REMARK    3  A    between atoms: C8_9  and  C9_10
REMARK    4  A    between atoms: C9_10  and  N2_11
REMARK    5  A    between atoms: N2_11  and  C10_12
REMARK    6  A    between atoms: C13_15  and  C14_16
REMARK    7  A    between atoms: C17_22  and  C18_23
REMARK                            x       y       z     vdW  Elec       q    Type
REMARK                         _______ _______ _______ _____ _____    ______ ____
ROOT
ATOM      1  C7  CHE B   04     25.640  67.785   9.513  0.00  0.00    +0.093 A 
ATOM      2  N1  CHE B   04     25.490  67.841   7.880  0.00  0.00    -0.339 N 
ATOM      3  C8  CHE B   04     22.025  68.077  10.021  0.00  0.00    +0.125 A 
ATOM      4  N4  CHE B   04     24.746  67.886   8.547  0.00  0.00    -0.230 NA
ATOM      5  C17 CHE B   04     24.179  67.873  10.875  0.00  0.00    +0.098 A 
ATOM      6  H7  CHE B   04     23.771  67.957   8.965  0.00  0.00    +0.167 HD
ENDROOT
BRANCH   5   7
ATOM      7  C18 CHE B   04     24.112  67.842  12.274  0.00  0.00    +0.000 C 
ATOM      8  C19 CHE B   04     25.902  64.053   9.379  0.00  0.00    +0.007 C 
ATOM      9  C20 CHE B   04     23.664  68.421  15.770  0.00  0.00    +0.118 C 
ATOM     10  N5  CHE B   04     24.115  67.411  15.454  0.00  0.00    -0.340 N 
ATOM     11  C21 CHE B   04     25.925  63.568  12.615  0.00  0.00    +0.083 C 
ATOM     12  C22 CHE B   04     25.335  64.742  14.127  0.00  0.00    +0.083 C 
ATOM     13  N6  CHE B   04     24.490  66.609  14.921  0.00  0.00    -0.340 N 
ATOM     14  C23 CHE B   04     24.502  66.787  13.369  0.00  0.00    +0.117 C 
ATOM     15  C24 CHE B   04     24.868  66.218  11.229  0.00  0.00    -0.002 C 
ATOM     16  C25 CHE B   04     23.753  68.604  12.848  0.00  0.00    +0.007 C 
ATOM     17  H19 CHE B   04     23.736  68.226  15.973  0.00  0.00    +0.146 HD
ATOM     18  H22 CHE B   04     26.403  62.696  10.789  0.00  0.00    +0.146 HD
ENDBRANCH   5   7
BRANCH   1  24
ATOM     19  C1  CHE B   04     22.806  67.464  13.752  0.00  0.00    +0.065 C 
ATOM     20  C2  CHE B   04     23.082  67.751  14.087  0.00  0.00    +0.039 A 
ATOM     21  C3  CHE B   04     22.442  68.135  16.381  0.00  0.00    +0.023 A 
ATOM     22  C4  CHE B   04     27.427  69.645  11.683  0.00  0.00    +0.004 A 
ATOM     23  C5  CHE B   04     23.527  68.214  14.627  0.00  0.00    +0.030 A 
ATOM     24  C6  CHE B   04     24.173  67.835  12.339  0.00  0.00    +0.090 A 
ATOM     25  N7  CHE B   04     21.265  66.910  14.951  0.00  0.00    -0.250 NA
ENDBRANCH   1  24
BRANCH   3  26
ATOM     26  C9  CHE B   04     21.029  68.189   8.945  0.00  0.00    +0.175 C 
BRANCH  26  27
ATOM     27  N2  CHE B   04     19.952  67.805   9.111  0.00  0.00    -0.337 N 
ATOM     28  H10 CHE B   04     20.340  67.776   9.541  0.00  0.00    +0.147 HD
BRANCH  27  29
ATOM     29  C10 CHE B   04     23.131  70.350   4.479  0.00  0.00    +0.027 A 
ATOM     30  C11 CHE B   04     18.731  67.581   7.529  0.00  0.00    +0.023 A 
ATOM     31  C12 CHE B   04     20.592  69.230   4.106  0.00  0.00    +0.015 A 
ATOM     32  C13 CHE B   04     17.402  67.337   5.806  0.00  0.00    +0.037 A 
ATOM     33  C15 CHE B   04     15.711  66.046   7.992  0.00  0.00    +0.015 A 
ATOM     34  C16 CHE B   04     19.242  68.001   6.732  0.00  0.00    +0.023 A 
BRANCH  32  35
ATOM     35  C14 CHE B   04     14.503  65.824   6.427  0.00  0.00    +0.242 C 
ATOM     36  O1  CHE B   04     17.723  67.809   3.128  0.00  0.00    -0.270 OA
ATOM     37  N3  CHE B   04     13.991  65.654   5.707  0.00  0.00    -0.325 N 
ATOM     38  H13 CHE B   04     16.575  67.244   3.079  0.00  0.00    +0.145 HD
ATOM     39  H14 CHE B   04     13.809  65.593   5.451  0.00  0.00    +0.145 HD
ENDBRANCH  32  35
ENDBRANCH  27  29
ENDBRANCH  26  27
ENDBRANCH   3  26
TORSDOF 6
ENDMDL
MODEL 9
REMARK VINA RESULT:     -10.0      3.716      9.905
REMARK  Name = dock_mp/CHEMBL5/CHEMBL565422.pdb
REMARK  7 active torsions:
REMARK  status: ('A' for Active; 'I' for Inactive)
REMARK    1  A    between atoms: C1_1  and  C2_2
REMARK    2  A    between atoms: C6_6  and  C7_7
REMARK    3  A    between atoms: C8_9  and  C9_10
REMARK    4  A    between atoms: C9_10  and  N2_11
REMARK    5  A    between atoms: N2_11  and  C10_12
REMARK    6  A    between atoms: C13_15  and  C14_16
REMARK    7  A    between atoms: C17_22  and  C18_23
REMARK                            x       y       z     vdW  Elec       q    Type
REMARK                         _______ _______ _______ _____ _____    ______ ____
ROOT
ATOM      1  C7  CHE B   04     25.432  67.729   9.090  0.00  0.00    +0.093 A 
ATOM      2  N1  CHE B   04     25.426  68.169   7.510  0.00  0.00    -0.339 N 
ATOM      3  C8  CHE B   04     21.832  68.305   9.435  0.00  0.00    +0.125 A 
ATOM      4  N4  CHE B   04     24.636  68.146   8.123  0.00  0.00    -0.230 NA
ATOM      5  C17 CHE B   04     23.876  67.671  10.346  0.00  0.00    +0.098 A 
ATOM      6  H7  CHE B   04     23.641  68.230   8.487  0.00  0.00    +0.167 HD
ENDROOT
BRANCH   5   7
ATOM      7  C18 CHE B   04     23.689  67.332  11.691  0.00  0.00    +0.000 C 
ATOM      8  C19 CHE B   04     26.679  71.115  10.049  0.00  0.00    +0.007 C 
ATOM      9  C20 CHE B   04     22.778  65.961  14.862  0.00  0.00    +0.118 C 
ATOM     10  N5  CHE B   04     23.508  66.851  14.859  0.00  0.00    -0.340 N 
ATOM     11  C21 CHE B   04     26.525  70.662  13.287  0.00  0.00    +0.083 C 
ATOM     12  C22 CHE B   04     25.507  69.330  14.383  0.00  0.00    +0.083 C 
ATOM     13  N6  CHE B   04     24.129  67.631  14.588  0.00  0.00    -0.340 N 
ATOM     14  C23 CHE B   04     24.239  67.891  13.052  0.00  0.00    +0.117 C 
ATOM     15  C24 CHE B   04     24.942  68.903  11.175  0.00  0.00    -0.002 C 
ATOM     16  C25 CHE B   04     23.089  66.574  12.014  0.00  0.00    +0.007 C 
ATOM     17  H19 CHE B   04     22.880  66.064  15.113  0.00  0.00    +0.146 HD
ATOM     18  H22 CHE B   04     27.386  71.834  11.800  0.00  0.00    +0.146 HD
ENDBRANCH   5   7
BRANCH   1  24
ATOM     19  C1  CHE B   04     22.418  67.649  13.215  0.00  0.00    +0.065 C 
ATOM     20  C2  CHE B   04     22.560  67.203  13.442  0.00  0.00    +0.039 A 
ATOM     21  C3  CHE B   04     21.607  66.374  15.498  0.00  0.00    +0.023 A 
ATOM     22  C4  CHE B   04     26.349  64.839  10.562  0.00  0.00    +0.004 A 
ATOM     23  C5  CHE B   04     22.788  66.483  13.809  0.00  0.00    +0.030 A 
ATOM     24  C6  CHE B   04     23.744  67.304  11.757  0.00  0.00    +0.090 A 
ATOM     25  N7  CHE B   04     21.003  68.277  14.528  0.00  0.00    -0.250 NA
ENDBRANCH   1  24
BRANCH   3  26
ATOM     26  C9  CHE B   04     20.946  68.769   8.358  0.00  0.00    +0.175 C 
BRANCH  26  27
ATOM     27  N2  CHE B   04     21.176  68.495   7.258  0.00  0.00    -0.337 N 
ATOM     28  H10 CHE B   04     21.518  68.868   7.543  0.00  0.00    +0.147 HD
BRANCH  27  29
ATOM     29  C10 CHE B   04     16.905  66.982  11.443  0.00  0.00    +0.027 A 
ATOM     30  C11 CHE B   04     19.469  68.484   6.198  0.00  0.00    +0.023 A 
ATOM     31  C12 CHE B   04     16.259  67.473   8.763  0.00  0.00    +0.015 A 
ATOM     32  C13 CHE B   04     17.608  68.472   5.043  0.00  0.00    +0.037 A 
ATOM     33  C15 CHE B   04     19.604  69.228   2.864  0.00  0.00    +0.015 A 
ATOM     34  C16 CHE B   04     18.730  68.232   6.879  0.00  0.00    +0.023 A 
BRANCH  32  35
ATOM     35  C14 CHE B   04     17.913  69.217   1.814  0.00  0.00    +0.242 C 
ATOM     36  O1  CHE B   04     15.550  66.718   5.468  0.00  0.00    -0.270 OA
ATOM     37  N3  CHE B   04     17.323  68.817   1.265  0.00  0.00    -0.325 N 
ATOM     38  H13 CHE B   04     15.441  66.824   4.197  0.00  0.00    +0.145 HD
ATOM     39  H14 CHE B   04     17.113  68.675   1.070  0.00  0.00    +0.145 HD
ENDBRANCH  32  35
ENDBRANCH  27  29
ENDBRANCH  26  27
ENDBRANCH   3  26
TORSDOF 6
ENDMDL
MODEL 10
REMARK VINA RESULT:     -10.0      2.425      3.835
REMARK  Name = dock_mp/CHEMBL5/CHEMBL565422.pdb
REMARK  7 active torsions:
REMARK  status: ('A' for Active; 'I' for Inactive)
REMARK    1  A    between atoms: C1_1  and  C2_2
REMARK    2  A    between atoms: C6_6  and  C7_7
REMARK    3  A    between atoms: C8_9  and  C9_10
REMARK    4  A    between atoms: C9_10  and  N2_11
REMARK    5  A    between atoms: N2_11  and  C10_12
REMARK    6  A    between atoms: C13_15  and  C14_16
REMARK    7  A    between atoms: C17_22  and  C18_23
REMARK                            x       y       z     vdW  Elec       q    Type
REMARK                         _______ _______ _______ _____ _____    ______ ____
ROOT
ATOM      1  C7  CHE B   04     18.167  68.671   9.483  0.00  0.00    +0.093 A 
ATOM      2  N1  CHE B   04     18.807  68.461  10.979  0.00  0.00    -0.339 N 
ATOM      3  C8  CHE B   04     21.466  68.673   7.893  0.00  0.00    +0.125 A 
ATOM      4  N4  CHE B   04     19.315  68.533  10.121  0.00  0.00    -0.230 NA
ATOM      5  C17 CHE B   04     19.150  68.819   7.747  0.00  0.00    +0.098 A 
ATOM      6  H7  CHE B   04     20.119  68.569   9.426  0.00  0.00    +0.167 HD
ENDROOT
BRANCH   5   7
ATOM      7  C18 CHE B   04     18.789  68.995   6.406  0.00  0.00    +0.000 C 
ATOM      8  C19 CHE B   04     16.732  65.532   9.523  0.00  0.00    +0.007 C 
ATOM      9  C20 CHE B   04     18.364  69.963   2.993  0.00  0.00    +0.118 C 
ATOM     10  N5  CHE B   04     17.705  69.105   3.387  0.00  0.00    -0.340 N 
ATOM     11  C21 CHE B   04     15.596  65.607   6.455  0.00  0.00    +0.083 C 
ATOM     12  C22 CHE B   04     16.084  66.769   4.898  0.00  0.00    +0.083 C 
ATOM     13  N6  CHE B   04     17.250  68.384   3.970  0.00  0.00    -0.340 N 
ATOM     14  C23 CHE B   04     17.756  68.304   5.446  0.00  0.00    +0.117 C 
ATOM     15  C24 CHE B   04     17.859  67.538   7.554  0.00  0.00    -0.002 C 
ATOM     16  C25 CHE B   04     19.204  69.690   5.786  0.00  0.00    +0.007 C 
ATOM     17  H19 CHE B   04     18.173  69.836   2.816  0.00  0.00    +0.146 HD
ATOM     18  H22 CHE B   04     15.403  64.643   8.288  0.00  0.00    +0.146 HD
ENDBRANCH   5   7
BRANCH   1  24
ATOM     19  C1  CHE B   04     19.682  68.990   4.614  0.00  0.00    +0.065 C 
ATOM     20  C2  CHE B   04     19.250  69.158   4.378  0.00  0.00    +0.039 A 
ATOM     21  C3  CHE B   04     19.083  69.585   2.009  0.00  0.00    +0.023 A 
ATOM     22  C4  CHE B   04     15.366  69.756   7.956  0.00  0.00    +0.004 A 
ATOM     23  C5  CHE B   04     18.552  69.428   3.998  0.00  0.00    +0.030 A 
ATOM     24  C6  CHE B   04     18.710  69.004   6.362  0.00  0.00    +0.090 A 
ATOM     25  N7  CHE B   04     20.928  68.870   3.015  0.00  0.00    -0.250 NA
ENDBRANCH   1  24
BRANCH   3  26
ATOM     26  C9  CHE B   04     22.744  68.520   8.603  0.00  0.00    +0.175 C 
BRANCH  26  27
ATOM     27  N2  CHE B   04     23.723  68.364   8.009  0.00  0.00    -0.337 N 
ATOM     28  H10 CHE B   04     23.249  68.563   7.741  0.00  0.00    +0.147 HD
BRANCH  27  29
ATOM     29  C10 CHE B   04     21.868  67.614  13.843  0.00  0.00    +0.027 A 
ATOM     30  C11 CHE B   04     25.326  67.549   8.906  0.00  0.00    +0.023 A 
ATOM     31  C12 CHE B   04     24.430  66.876  12.986  0.00  0.00    +0.015 A 
ATOM     32  C13 CHE B   04     27.073  66.661   9.885  0.00  0.00    +0.037 A 
ATOM     33  C15 CHE B   04     28.133  66.970   7.041  0.00  0.00    +0.015 A 
ATOM     34  C16 CHE B   04     25.042  67.411   9.893  0.00  0.00    +0.023 A 
BRANCH  32  35
ATOM     35  C14 CHE B   04     29.720  66.163   7.930  0.00  0.00    +0.242 C 
ATOM     36  O1  CHE B   04     27.190  65.103  12.133  0.00  0.00    -0.270 OA
ATOM     37  N3  CHE B   04     30.318  65.561   8.231  0.00  0.00    -0.325 N 
ATOM     38  H13 CHE B   04     28.285  64.723  11.588  0.00  0.00    +0.145 HD
ATOM     39  H14 CHE B   04     30.531  65.348   8.337  0.00  0.00    +0.145 HD
ENDBRANCH  32  35
ENDBRANCH  27  29
ENDBRANCH  26  27
ENDBRANCH   3  26
TORSDOF 6
ENDMDL
