MODEL 1
REMARK VINA RESULT:     -10.9      0.000      0.000
REMARK  Name = dock_mp/CHEMBL5/CHEMBL563421.pdb
REMARK  5 active torsions:
REMARK  status: ('A' for Active; 'I' for Inactive)
REMARK    1  A    between atoms: C1_1  and  C2_2
REMARK    2  A    between atoms: C6_6  and  C7_7
REMARK    3  A    between atoms: C8_9  and  N2_10
REMARK    4  A    between atoms: N2_10  and  C9_11
REMARK    5  A    between atoms: C13_15  and  C14_16
REMARK                            x       y       z     vdW  Elec       q    Type
REMARK                         _______ _______ _______ _____ _____    ______ ____
ROOT
ATOM      1  C7  CHE B   04     18.111  68.484   3.951  0.00  0.00    +0.181 A 
ATOM      2  N1  CHE B   04     22.072  68.699   9.855  0.00  0.00    -0.210 NA
ATOM      3  C8  CHE B   04     18.612  68.501   7.644  0.00  0.00    +0.135 A 
ATOM      4  C16 CHE B   04     21.599  68.670  10.315  0.00  0.00    +0.040 A 
ATOM      5  C17 CHE B   04     19.528  68.549   9.539  0.00  0.00    +0.013 A 
ATOM      6  C18 CHE B   04     17.723  68.451   7.114  0.00  0.00    +0.001 A 
ATOM      7  C19 CHE B   04     17.237  68.430   4.800  0.00  0.00    +0.002 A 
ATOM      8  C20 CHE B   04     18.627  68.512   4.844  0.00  0.00    +0.028 A 
ATOM      9  C21 CHE B   04     17.681  68.457   4.369  0.00  0.00    +0.077 A 
ATOM     10  N4  CHE B   04     17.631  68.459   3.025  0.00  0.00    -0.226 NA
ENDROOT
BRANCH   1  16
ATOM     11  C1  CHE B   04     20.271  68.834   4.633  0.00  0.00    +0.065 C 
ATOM     12  C2  CHE B   04     20.529  68.952   4.380  0.00  0.00    +0.039 A 
ATOM     13  C3  CHE B   04     20.012  69.348   2.085  0.00  0.00    +0.023 A 
ATOM     14  C4  CHE B   04     21.697  69.482   3.234  0.00  0.00    +0.004 A 
ATOM     15  C5  CHE B   04     21.059  69.192   3.860  0.00  0.00    +0.031 A 
ATOM     16  C6  CHE B   04     23.670  68.799   8.303  0.00  0.00    +0.108 A 
ATOM     17  N5  CHE B   04     22.726  68.686   7.829  0.00  0.00    -0.249 NA
ENDBRANCH   1  16
BRANCH   3  18
ATOM     18  N2  CHE B   04     18.403  68.484   9.239  0.00  0.00    -0.299 N 
ATOM     19  H7  CHE B   04     15.853  65.665   5.976  0.00  0.00    +0.154 HD
BRANCH  18  20
ATOM     20  C9  CHE B   04     16.503  66.493   7.767  0.00  0.00    +0.033 A 
ATOM     21  C10 CHE B   04     15.044  64.919   5.671  0.00  0.00    +0.023 A 
ATOM     22  C11 CHE B   04     17.054  67.143   9.762  0.00  0.00    +0.003 A 
ATOM     23  C12 CHE B   04     16.135  66.210   9.675  0.00  0.00    +0.013 A 
ATOM     24  C13 CHE B   04     18.083  68.310  12.467  0.00  0.00    +0.038 A 
ATOM     25  C15 CHE B   04     16.561  66.612   9.073  0.00  0.00    +0.036 A 
BRANCH  24  26
ATOM     26  C14 CHE B   04     17.648  67.899  13.084  0.00  0.00    +0.242 C 
ATOM     27  O1  CHE B   04     16.890  68.527  12.899  0.00  0.00    -0.270 OA
ATOM     28  N3  CHE B   04     21.100  64.441  14.482  0.00  0.00    -0.325 N 
ATOM     29  H11 CHE B   04     20.307  65.036  14.347  0.00  0.00    +0.145 HD
ATOM     30  H12 CHE B   04     17.610  66.519  14.395  0.00  0.00    +0.145 HD
ENDBRANCH  24  26
ENDBRANCH  18  20
ENDBRANCH   3  18
TORSDOF 4
ENDMDL
MODEL 2
REMARK VINA RESULT:     -10.5      2.713      4.237
REMARK  Name = dock_mp/CHEMBL5/CHEMBL563421.pdb
REMARK  5 active torsions:
REMARK  status: ('A' for Active; 'I' for Inactive)
REMARK    1  A    between atoms: C1_1  and  C2_2
REMARK    2  A    between atoms: C6_6  and  C7_7
REMARK    3  A    between atoms: C8_9  and  N2_10
REMARK    4  A    between atoms: N2_10  and  C9_11
REMARK    5  A    between atoms: C13_15  and  C14_16
REMARK                            x       y       z     vdW  Elec       q    Type
REMARK                         _______ _______ _______ _____ _____    ______ ____
ROOT
ATOM      1  C7  CHE B   04     16.060  67.998   5.146  0.00  0.00    +0.181 A 
ATOM      2  N1  CHE B   04     22.819  70.179   4.756  0.00  0.00    -0.210 NA
ATOM      3  C8  CHE B   04     19.236  69.319   6.579  0.00  0.00    +0.135 A 
ATOM      4  C16 CHE B   04     22.929  70.332   5.389  0.00  0.00    +0.040 A 
ATOM      5  C17 CHE B   04     21.217  70.012   6.755  0.00  0.00    +0.013 A 
ATOM      6  C18 CHE B   04     18.345  69.112   7.066  0.00  0.00    +0.001 A 
ATOM      7  C19 CHE B   04     16.264  68.280   6.315  0.00  0.00    +0.002 A 
ATOM      8  C20 CHE B   04     17.037  68.326   5.157  0.00  0.00    +0.028 A 
ATOM      9  C21 CHE B   04     16.160  68.137   5.721  0.00  0.00    +0.077 A 
ATOM     10  N4  CHE B   04     15.075  67.659   5.086  0.00  0.00    -0.226 NA
ENDROOT
BRANCH   1  16
ATOM     11  C1  CHE B   04     17.669  68.565   3.614  0.00  0.00    +0.065 C 
ATOM     12  C2  CHE B   04     17.572  68.605   3.249  0.00  0.00    +0.039 A 
ATOM     13  C3  CHE B   04     15.343  68.299   2.456  0.00  0.00    +0.023 A 
ATOM     14  C4  CHE B   04     17.131  68.791   1.597  0.00  0.00    +0.004 A 
ATOM     15  C5  CHE B   04     17.372  68.689   2.500  0.00  0.00    +0.031 A 
ATOM     16  C6  CHE B   04     22.446  69.663   2.619  0.00  0.00    +0.108 A 
ATOM     17  N5  CHE B   04     21.591  69.402   3.192  0.00  0.00    -0.249 NA
ENDBRANCH   1  16
BRANCH   3  18
ATOM     18  N2  CHE B   04     20.382  69.880   7.559  0.00  0.00    -0.299 N 
ATOM     19  H7  CHE B   04     16.930  66.480   8.827  0.00  0.00    +0.154 HD
BRANCH  18  20
ATOM     20  C9  CHE B   04     18.545  67.779   8.955  0.00  0.00    +0.033 A 
ATOM     21  C10 CHE B   04     16.419  65.743   9.534  0.00  0.00    +0.023 A 
ATOM     22  C11 CHE B   04     20.241  69.072   9.352  0.00  0.00    +0.003 A 
ATOM     23  C12 CHE B   04     19.816  68.329  10.347  0.00  0.00    +0.013 A 
ATOM     24  C13 CHE B   04     22.650  71.043   9.572  0.00  0.00    +0.038 A 
ATOM     25  C15 CHE B   04     19.536  68.393   9.558  0.00  0.00    +0.036 A 
BRANCH  24  26
ATOM     26  C14 CHE B   04     22.937  70.978  10.380  0.00  0.00    +0.242 C 
ATOM     27  O1  CHE B   04     22.576  71.900  10.530  0.00  0.00    -0.270 OA
ATOM     28  N3  CHE B   04     24.961  66.318  10.254  0.00  0.00    -0.325 N 
ATOM     29  H11 CHE B   04     24.623  67.234  10.469  0.00  0.00    +0.145 HD
ATOM     30  H12 CHE B   04     23.821  69.936  11.707  0.00  0.00    +0.145 HD
ENDBRANCH  24  26
ENDBRANCH  18  20
ENDBRANCH   3  18
TORSDOF 4
ENDMDL
MODEL 3
REMARK VINA RESULT:     -10.2      2.340      5.168
REMARK  Name = dock_mp/CHEMBL5/CHEMBL563421.pdb
REMARK  5 active torsions:
REMARK  status: ('A' for Active; 'I' for Inactive)
REMARK    1  A    between atoms: C1_1  and  C2_2
REMARK    2  A    between atoms: C6_6  and  C7_7
REMARK    3  A    between atoms: C8_9  and  N2_10
REMARK    4  A    between atoms: N2_10  and  C9_11
REMARK    5  A    between atoms: C13_15  and  C14_16
REMARK                            x       y       z     vdW  Elec       q    Type
REMARK                         _______ _______ _______ _____ _____    ______ ____
ROOT
ATOM      1  C7  CHE B   04     17.944  69.037   2.929  0.00  0.00    +0.181 A 
ATOM      2  N1  CHE B   04     18.268  67.572   9.881  0.00  0.00    -0.210 NA
ATOM      3  C8  CHE B   04     19.251  69.503   6.387  0.00  0.00    +0.135 A 
ATOM      4  C16 CHE B   04     18.730  68.004  10.070  0.00  0.00    +0.040 A 
ATOM      5  C17 CHE B   04     19.553  69.280   8.459  0.00  0.00    +0.013 A 
ATOM      6  C18 CHE B   04     19.519  70.007   5.523  0.00  0.00    +0.001 A 
ATOM      7  C19 CHE B   04     18.797  69.836   3.278  0.00  0.00    +0.002 A 
ATOM      8  C20 CHE B   04     18.039  68.874   3.942  0.00  0.00    +0.028 A 
ATOM      9  C21 CHE B   04     18.364  69.430   3.101  0.00  0.00    +0.077 A 
ATOM     10  N4  CHE B   04     17.814  69.168   1.901  0.00  0.00    -0.226 NA
ENDROOT
BRANCH   1  16
ATOM     11  C1  CHE B   04     16.805  67.937   4.585  0.00  0.00    +0.065 C 
ATOM     12  C2  CHE B   04     16.450  67.818   4.519  0.00  0.00    +0.039 A 
ATOM     13  C3  CHE B   04     15.331  68.158   2.440  0.00  0.00    +0.023 A 
ATOM     14  C4  CHE B   04     14.845  67.278   4.219  0.00  0.00    +0.004 A 
ATOM     15  C5  CHE B   04     15.722  67.573   4.383  0.00  0.00    +0.031 A 
ATOM     16  C6  CHE B   04     16.708  66.112   9.242  0.00  0.00    +0.108 A 
ATOM     17  N5  CHE B   04     17.092  66.599   8.378  0.00  0.00    -0.249 NA
ENDBRANCH   1  16
BRANCH   3  18
ATOM     18  N2  CHE B   04     20.052  70.001   7.690  0.00  0.00    -0.299 N 
ATOM     19  H7  CHE B   04     22.076  69.315   3.159  0.00  0.00    +0.154 HD
BRANCH  18  20
ATOM     20  C9  CHE B   04     21.888  69.775   5.176  0.00  0.00    +0.033 A 
ATOM     21  C10 CHE B   04     22.914  69.396   2.382  0.00  0.00    +0.023 A 
ATOM     22  C11 CHE B   04     21.979  70.175   7.306  0.00  0.00    +0.003 A 
ATOM     23  C12 CHE B   04     23.115  70.199   6.649  0.00  0.00    +0.013 A 
ATOM     24  C13 CHE B   04     21.744  70.703  10.372  0.00  0.00    +0.038 A 
ATOM     25  C15 CHE B   04     22.334  70.051   6.379  0.00  0.00    +0.036 A 
BRANCH  24  26
ATOM     26  C14 CHE B   04     22.544  70.855  10.649  0.00  0.00    +0.242 C 
ATOM     27  O1  CHE B   04     22.399  71.811  10.388  0.00  0.00    -0.270 OA
ATOM     28  N3  CHE B   04     23.882  66.193  12.166  0.00  0.00    -0.325 N 
ATOM     29  H11 CHE B   04     23.803  67.161  11.927  0.00  0.00    +0.145 HD
ATOM     30  H12 CHE B   04     24.150  70.176  11.414  0.00  0.00    +0.145 HD
ENDBRANCH  24  26
ENDBRANCH  18  20
ENDBRANCH   3  18
TORSDOF 4
ENDMDL
MODEL 4
REMARK VINA RESULT:     -10.0      3.352      7.060
REMARK  Name = dock_mp/CHEMBL5/CHEMBL563421.pdb
REMARK  5 active torsions:
REMARK  status: ('A' for Active; 'I' for Inactive)
REMARK    1  A    between atoms: C1_1  and  C2_2
REMARK    2  A    between atoms: C6_6  and  C7_7
REMARK    3  A    between atoms: C8_9  and  N2_10
REMARK    4  A    between atoms: N2_10  and  C9_11
REMARK    5  A    between atoms: C13_15  and  C14_16
REMARK                            x       y       z     vdW  Elec       q    Type
REMARK                         _______ _______ _______ _____ _____    ______ ____
ROOT
ATOM      1  C7  CHE B   04     16.293  66.864   7.224  0.00  0.00    +0.181 A 
ATOM      2  N1  CHE B   04     22.285  70.627   7.945  0.00  0.00    -0.210 NA
ATOM      3  C8  CHE B   04     19.391  68.495   5.949  0.00  0.00    +0.135 A 
ATOM      4  C16 CHE B   04     22.495  70.634   7.319  0.00  0.00    +0.040 A 
ATOM      5  C17 CHE B   04     21.199  69.574   5.871  0.00  0.00    +0.013 A 
ATOM      6  C18 CHE B   04     18.678  67.962   5.419  0.00  0.00    +0.001 A 
ATOM      7  C19 CHE B   04     16.680  66.877   6.067  0.00  0.00    +0.002 A 
ATOM      8  C20 CHE B   04     17.171  67.402   7.260  0.00  0.00    +0.028 A 
ATOM      9  C21 CHE B   04     16.484  66.870   6.655  0.00  0.00    +0.077 A 
ATOM     10  N4  CHE B   04     15.399  66.325   7.234  0.00  0.00    -0.226 NA
ENDROOT
BRANCH   1  16
ATOM     11  C1  CHE B   04     17.610  67.809   8.845  0.00  0.00    +0.065 C 
ATOM     12  C2  CHE B   04     17.523  67.753   9.211  0.00  0.00    +0.039 A 
ATOM     13  C3  CHE B   04     15.651  66.454   9.918  0.00  0.00    +0.023 A 
ATOM     14  C4  CHE B   04     17.128  67.501  10.866  0.00  0.00    +0.004 A 
ATOM     15  C5  CHE B   04     17.344  67.639   9.961  0.00  0.00    +0.031 A 
ATOM     16  C6  CHE B   04     21.578  70.602  10.059  0.00  0.00    +0.108 A 
ATOM     17  N5  CHE B   04     20.873  70.101   9.441  0.00  0.00    -0.249 NA
ENDBRANCH   1  16
BRANCH   3  18
ATOM     18  N2  CHE B   04     20.590  69.045   5.028  0.00  0.00    -0.299 N 
ATOM     19  H7  CHE B   04     15.882  68.312   3.482  0.00  0.00    +0.154 HD
BRANCH  18  20
ATOM     20  C9  CHE B   04     17.898  68.813   3.466  0.00  0.00    +0.033 A 
ATOM     21  C10 CHE B   04     15.029  68.346   2.724  0.00  0.00    +0.023 A 
ATOM     22  C11 CHE B   04     19.980  69.349   3.177  0.00  0.00    +0.003 A 
ATOM     23  C12 CHE B   04     19.197  69.423   2.126  0.00  0.00    +0.013 A 
ATOM     24  C13 CHE B   04     23.022  70.045   3.120  0.00  0.00    +0.038 A 
ATOM     25  C15 CHE B   04     19.026  69.197   2.917  0.00  0.00    +0.036 A 
BRANCH  24  26
ATOM     26  C14 CHE B   04     23.196  70.277   2.311  0.00  0.00    +0.242 C 
ATOM     27  O1  CHE B   04     22.818  69.394   2.029  0.00  0.00    -0.270 OA
ATOM     28  N3  CHE B   04     25.221  74.872   3.098  0.00  0.00    -0.325 N 
ATOM     29  H11 CHE B   04     24.857  74.007   2.750  0.00  0.00    +0.145 HD
ATOM     30  H12 CHE B   04     23.894  71.584   1.115  0.00  0.00    +0.145 HD
ENDBRANCH  24  26
ENDBRANCH  18  20
ENDBRANCH   3  18
TORSDOF 4
ENDMDL
MODEL 5
REMARK VINA RESULT:      -9.9      2.421      6.690
REMARK  Name = dock_mp/CHEMBL5/CHEMBL563421.pdb
REMARK  5 active torsions:
REMARK  status: ('A' for Active; 'I' for Inactive)
REMARK    1  A    between atoms: C1_1  and  C2_2
REMARK    2  A    between atoms: C6_6  and  C7_7
REMARK    3  A    between atoms: C8_9  and  N2_10
REMARK    4  A    between atoms: N2_10  and  C9_11
REMARK    5  A    between atoms: C13_15  and  C14_16
REMARK                            x       y       z     vdW  Elec       q    Type
REMARK                         _______ _______ _______ _____ _____    ______ ____
ROOT
ATOM      1  C7  CHE B   04     21.723  70.316   7.921  0.00  0.00    +0.181 A 
ATOM      2  N1  CHE B   04     16.026  66.786  10.302  0.00  0.00    -0.210 NA
ATOM      3  C8  CHE B   04     18.377  68.721   7.540  0.00  0.00    +0.135 A 
ATOM      4  C16 CHE B   04     15.669  66.754   9.748  0.00  0.00    +0.040 A 
ATOM      5  C17 CHE B   04     16.587  67.698   7.968  0.00  0.00    +0.013 A 
ATOM      6  C18 CHE B   04     18.948  69.204   6.822  0.00  0.00    +0.001 A 
ATOM      7  C19 CHE B   04     21.063  70.256   6.897  0.00  0.00    +0.002 A 
ATOM      8  C20 CHE B   04     20.872  69.808   8.202  0.00  0.00    +0.028 A 
ATOM      9  C21 CHE B   04     21.399  70.287   7.417  0.00  0.00    +0.077 A 
ATOM     10  N4  CHE B   04     22.602  70.826   7.681  0.00  0.00    -0.226 NA
ENDROOT
BRANCH   1  16
ATOM     11  C1  CHE B   04     20.858  69.451   9.859  0.00  0.00    +0.065 C 
ATOM     12  C2  CHE B   04     21.047  69.501  10.185  0.00  0.00    +0.039 A 
ATOM     13  C3  CHE B   04     23.112  70.687  10.324  0.00  0.00    +0.023 A 
ATOM     14  C4  CHE B   04     21.900  69.729  11.662  0.00  0.00    +0.004 A 
ATOM     15  C5  CHE B   04     21.433  69.604  10.855  0.00  0.00    +0.031 A 
ATOM     16  C6  CHE B   04     17.233  66.896  12.173  0.00  0.00    +0.108 A 
ATOM     17  N5  CHE B   04     17.765  67.355  11.376  0.00  0.00    -0.249 NA
ENDBRANCH   1  16
BRANCH   3  18
ATOM     18  N2  CHE B   04     16.979  68.164   6.973  0.00  0.00    -0.299 N 
ATOM     19  H7  CHE B   04     21.020  69.151   4.183  0.00  0.00    +0.154 HD
BRANCH  18  20
ATOM     20  C9  CHE B   04     19.099  68.571   4.720  0.00  0.00    +0.033 A 
ATOM     21  C10 CHE B   04     21.527  69.398   3.163  0.00  0.00    +0.023 A 
ATOM     22  C11 CHE B   04     17.186  67.617   5.090  0.00  0.00    +0.003 A 
ATOM     23  C12 CHE B   04     17.694  67.480   3.888  0.00  0.00    +0.013 A 
ATOM     24  C13 CHE B   04     14.459  66.379   5.966  0.00  0.00    +0.038 A 
ATOM     25  C15 CHE B   04     17.991  67.886   4.560  0.00  0.00    +0.036 A 
BRANCH  24  26
ATOM     26  C14 CHE B   04     14.155  65.963   5.277  0.00  0.00    +0.242 C 
ATOM     27  O1  CHE B   04     13.811  65.268   5.910  0.00  0.00    -0.270 OA
ATOM     28  N3  CHE B   04     15.643  69.118   1.581  0.00  0.00    -0.325 N 
ATOM     29  H11 CHE B   04     15.274  68.390   2.158  0.00  0.00    +0.145 HD
ATOM     30  H12 CHE B   04     13.945  65.899   3.386  0.00  0.00    +0.145 HD
ENDBRANCH  24  26
ENDBRANCH  18  20
ENDBRANCH   3  18
TORSDOF 4
ENDMDL
