MODEL 1
REMARK VINA RESULT:      -9.2      0.000      0.000
REMARK  Name = dock_mp/CHEMBL5/CHEMBL583549.pdb
REMARK  4 active torsions:
REMARK  status: ('A' for Active; 'I' for Inactive)
REMARK    1  A    between atoms: C1_2  and  C2_4
REMARK    2  A    between atoms: C5_7  and  C6_8
REMARK    3  A    between atoms: C7_10  and  C8_11
REMARK    4  A    between atoms: C15_20  and  C16_21
REMARK                            x       y       z     vdW  Elec       q    Type
REMARK                         _______ _______ _______ _____ _____    ______ ____
ROOT
ATOM      1  C6  CHE B   05     16.580  69.486   7.940  0.00  0.00    +0.139 A 
ATOM      2  N1  CHE B   05     17.178  68.698   9.986  0.00  0.00    -0.227 NA
ATOM      3  C7  CHE B   05     19.097  67.620  13.505  0.00  0.00    +0.095 A 
ATOM      4  C15 CHE B   05     15.359  68.645   8.906  0.00  0.00    +0.092 A 
ATOM      5  N3  CHE B   05     16.290  69.286   8.169  0.00  0.00    -0.336 N 
ATOM      6  H14 CHE B   05     18.109  69.339   9.249  0.00  0.00    +0.167 HD
ENDROOT
BRANCH   3   7
ATOM      7  C8  CHE B   05     18.865  66.860  14.949  0.00  0.00    -0.017 C 
ATOM      8  C9  CHE B   05     17.703  66.365  16.794  0.00  0.00    +0.009 C 
ATOM      9  C10 CHE B   05     18.267  65.536  17.637  0.00  0.00    +0.044 C 
ATOM     10  C11 CHE B   05     23.119  65.015  14.141  0.00  0.00    +0.130 C 
ATOM     11  O3  CHE B   05     21.199  64.532  16.645  0.00  0.00    -0.468 OA
ATOM     12  C12 CHE B   05     25.697  64.529  12.622  0.00  0.00    +0.395 C 
ATOM     13  O4  CHE B   05     18.732  65.955  16.541  0.00  0.00    -0.333 OA
ATOM     14  C13 CHE B   05     17.905  66.068  17.097  0.00  0.00    +0.191 C 
ATOM     15  C14 CHE B   05     23.704  66.358  11.434  0.00  0.00    +0.077 C 
ENDBRANCH   3   7
BRANCH   1  19
ATOM     16  C2  CHE B   05     19.600  69.674   5.339  0.00  0.00    +0.063 A 
ATOM     17  C3  CHE B   05     22.646  69.555   9.313  0.00  0.00    +0.016 A 
ATOM     18  C4  CHE B   05     21.001  69.515   9.410  0.00  0.00    +0.012 A 
ATOM     19  C5  CHE B   05     20.875  69.445  10.838  0.00  0.00    +0.017 A 
ATOM     20  C21 CHE B   05     23.061  69.396  12.913  0.00  0.00    +0.012 A 
ATOM     21  C22 CHE B   05     19.474  69.605   6.767  0.00  0.00    +0.016 A 
BRANCH  16  23
ATOM     22  O1  CHE B   05     22.062  71.353   6.303  0.00  0.00    -0.241 OA
ATOM     23  C1  CHE B   05     23.910  69.634   8.225  0.00  0.00    +0.387 C 
ATOM     24  O2  CHE B   05     24.033  69.917   8.193  0.00  0.00    -0.241 OA
ENDBRANCH  16  23
ENDBRANCH   1  19
BRANCH   4  25
ATOM     25  C16 CHE B   05     18.247  67.634  12.919  0.00  0.00    +0.089 A 
ATOM     26  C17 CHE B   05     16.175  66.550  10.623  0.00  0.00    +0.030 A 
ATOM     27  C18 CHE B   05     16.073  66.041  10.656  0.00  0.00    +0.004 A 
ATOM     28  C19 CHE B   05     18.661  66.616  13.775  0.00  0.00    +0.020 A 
ATOM     29  C20 CHE B   05     18.922  67.917  13.690  0.00  0.00    +0.111 A 
ATOM     30  N2  CHE B   05     20.218  68.220  15.248  0.00  0.00    -0.253 NA
ENDBRANCH   4  25
TORSDOF 4
ENDMDL
MODEL 2
REMARK VINA RESULT:      -7.6      2.697      3.370
REMARK  Name = dock_mp/CHEMBL5/CHEMBL583549.pdb
REMARK  4 active torsions:
REMARK  status: ('A' for Active; 'I' for Inactive)
REMARK    1  A    between atoms: C1_2  and  C2_4
REMARK    2  A    between atoms: C5_7  and  C6_8
REMARK    3  A    between atoms: C7_10  and  C8_11
REMARK    4  A    between atoms: C15_20  and  C16_21
REMARK                            x       y       z     vdW  Elec       q    Type
REMARK                         _______ _______ _______ _____ _____    ______ ____
ROOT
ATOM      1  C6  CHE B   05     16.199  68.600   7.083  0.00  0.00    +0.139 A 
ATOM      2  N1  CHE B   05     17.593  68.581   8.879  0.00  0.00    -0.227 NA
ATOM      3  C7  CHE B   05     20.745  68.914  11.560  0.00  0.00    +0.095 A 
ATOM      4  C15 CHE B   05     15.582  67.974   8.620  0.00  0.00    +0.092 A 
ATOM      5  N3  CHE B   05     16.053  68.451   7.448  0.00  0.00    -0.336 N 
ATOM      6  H14 CHE B   05     18.063  69.058   7.707  0.00  0.00    +0.167 HD
ENDROOT
BRANCH   3   7
ATOM      7  C8  CHE B   05     21.173  68.633  13.126  0.00  0.00    -0.017 C 
ATOM      8  C9  CHE B   05     20.800  68.569  15.330  0.00  0.00    +0.009 C 
ATOM      9  C10 CHE B   05     21.794  68.165  16.081  0.00  0.00    +0.044 C 
ATOM     10  C11 CHE B   05     25.320  67.378  11.288  0.00  0.00    +0.130 C 
ATOM     11  O3  CHE B   05     24.449  67.409  14.358  0.00  0.00    -0.468 OA
ATOM     12  C12 CHE B   05     27.352  66.874   9.094  0.00  0.00    +0.395 C 
ATOM     13  O4  CHE B   05     21.776  68.280  14.824  0.00  0.00    -0.333 OA
ATOM     14  C13 CHE B   05     21.156  68.424  15.599  0.00  0.00    +0.191 C 
ATOM     15  C14 CHE B   05     24.676  67.854   8.315  0.00  0.00    +0.077 C 
ENDBRANCH   3   7
BRANCH   1  19
ATOM     16  C2  CHE B   05     17.963  68.770   3.509  0.00  0.00    +0.063 A 
ATOM     17  C3  CHE B   05     22.132  70.087   5.952  0.00  0.00    +0.016 A 
ATOM     18  C4  CHE B   05     20.694  69.765   6.689  0.00  0.00    +0.012 A 
ATOM     19  C5  CHE B   05     21.098  69.987   8.049  0.00  0.00    +0.017 A 
ATOM     20  C21 CHE B   05     23.809  70.797   9.090  0.00  0.00    +0.012 A 
ATOM     21  C22 CHE B   05     18.367  68.992   4.868  0.00  0.00    +0.016 A 
BRANCH  16  23
ATOM     22  O1  CHE B   05     20.675  69.662   2.221  0.00  0.00    -0.241 OA
ATOM     23  C1  CHE B   05     22.871  70.158   4.456  0.00  0.00    +0.387 C 
ATOM     24  O2  CHE B   05     22.995  70.214   4.178  0.00  0.00    -0.241 OA
ENDBRANCH  16  23
ENDBRANCH   1  19
BRANCH   4  25
ATOM     25  C16 CHE B   05     19.769  68.641  11.356  0.00  0.00    +0.089 A 
ATOM     26  C17 CHE B   05     16.871  67.152  11.000  0.00  0.00    +0.030 A 
ATOM     27  C18 CHE B   05     16.755  66.825  11.386  0.00  0.00    +0.004 A 
ATOM     28  C19 CHE B   05     20.421  68.249  12.524  0.00  0.00    +0.020 A 
ATOM     29  C20 CHE B   05     20.718  69.087  11.534  0.00  0.00    +0.111 A 
ATOM     30  N2  CHE B   05     22.554  69.808  12.092  0.00  0.00    -0.253 NA
ENDBRANCH   4  25
TORSDOF 4
ENDMDL
MODEL 3
REMARK VINA RESULT:      -7.6      3.317      4.677
REMARK  Name = dock_mp/CHEMBL5/CHEMBL583549.pdb
REMARK  4 active torsions:
REMARK  status: ('A' for Active; 'I' for Inactive)
REMARK    1  A    between atoms: C1_2  and  C2_4
REMARK    2  A    between atoms: C5_7  and  C6_8
REMARK    3  A    between atoms: C7_10  and  C8_11
REMARK    4  A    between atoms: C15_20  and  C16_21
REMARK                            x       y       z     vdW  Elec       q    Type
REMARK                         _______ _______ _______ _____ _____    ______ ____
ROOT
ATOM      1  C6  CHE B   05     19.328  69.504   3.313  0.00  0.00    +0.139 A 
ATOM      2  N1  CHE B   05     19.574  69.268   5.560  0.00  0.00    -0.227 NA
ATOM      3  C7  CHE B   05     20.907  69.062   9.486  0.00  0.00    +0.095 A 
ATOM      4  C15 CHE B   05     17.909  69.057   4.272  0.00  0.00    +0.092 A 
ATOM      5  N3  CHE B   05     18.992  69.398   3.541  0.00  0.00    -0.336 N 
ATOM      6  H14 CHE B   05     20.656  69.609   4.829  0.00  0.00    +0.167 HD
ENDROOT
BRANCH   3   7
ATOM      7  C8  CHE B   05     20.413  68.749  11.027  0.00  0.00    -0.017 C 
ATOM      8  C9  CHE B   05     18.983  68.873  12.741  0.00  0.00    +0.009 C 
ATOM      9  C10 CHE B   05     19.340  68.268  13.847  0.00  0.00    +0.044 C 
ATOM     10  C11 CHE B   05     24.494  66.432  11.379  0.00  0.00    +0.130 C 
ATOM     11  O3  CHE B   05     22.237  66.807  13.605  0.00  0.00    -0.468 OA
ATOM     12  C12 CHE B   05     27.168  65.350  10.445  0.00  0.00    +0.395 C 
ATOM     13  O4  CHE B   05     19.981  68.331  12.762  0.00  0.00    -0.333 OA
ATOM     14  C13 CHE B   05     19.111  68.656  13.138  0.00  0.00    +0.191 C 
ATOM     15  C14 CHE B   05     25.559  66.927   8.534  0.00  0.00    +0.077 C 
ENDBRANCH   3   7
BRANCH   1  19
ATOM     16  C2  CHE B   05     22.669  69.396   1.134  0.00  0.00    +0.063 A 
ATOM     17  C3  CHE B   05     25.157  69.876   5.454  0.00  0.00    +0.016 A 
ATOM     18  C4  CHE B   05     23.514  69.817   5.337  0.00  0.00    +0.012 A 
ATOM     19  C5  CHE B   05     23.198  69.940   6.732  0.00  0.00    +0.017 A 
ATOM     20  C21 CHE B   05     25.087  70.216   9.065  0.00  0.00    +0.012 A 
ATOM     21  C22 CHE B   05     22.353  69.518   2.529  0.00  0.00    +0.016 A 
BRANCH  16  23
ATOM     22  O1  CHE B   05     25.345  70.879   1.803  0.00  0.00    -0.241 OA
ATOM     23  C1  CHE B   05     26.555  69.831   4.542  0.00  0.00    +0.387 C 
ATOM     24  O2  CHE B   05     26.742  70.049   4.426  0.00  0.00    -0.241 OA
ENDBRANCH  16  23
ENDBRANCH   1  19
BRANCH   4  25
ATOM     25  C16 CHE B   05     20.143  68.978   8.796  0.00  0.00    +0.089 A 
ATOM     26  C17 CHE B   05     18.075  67.575   6.675  0.00  0.00    +0.030 A 
ATOM     27  C18 CHE B   05     17.856  67.139   6.854  0.00  0.00    +0.004 A 
ATOM     28  C19 CHE B   05     20.239  68.262   9.987  0.00  0.00    +0.020 A 
ATOM     29  C20 CHE B   05     20.799  69.378   9.530  0.00  0.00    +0.111 A 
ATOM     30  N2  CHE B   05     21.997  69.952  11.092  0.00  0.00    -0.253 NA
ENDBRANCH   4  25
TORSDOF 4
ENDMDL
MODEL 4
REMARK VINA RESULT:      -7.3      3.174      6.076
REMARK  Name = dock_mp/CHEMBL5/CHEMBL583549.pdb
REMARK  4 active torsions:
REMARK  status: ('A' for Active; 'I' for Inactive)
REMARK    1  A    between atoms: C1_2  and  C2_4
REMARK    2  A    between atoms: C5_7  and  C6_8
REMARK    3  A    between atoms: C7_10  and  C8_11
REMARK    4  A    between atoms: C15_20  and  C16_21
REMARK                            x       y       z     vdW  Elec       q    Type
REMARK                         _______ _______ _______ _____ _____    ______ ____
ROOT
ATOM      1  C6  CHE B   05     17.582  66.929  12.637  0.00  0.00    +0.139 A 
ATOM      2  N1  CHE B   05     19.666  67.793  12.913  0.00  0.00    -0.227 NA
ATOM      3  C7  CHE B   05     23.522  69.272  12.494  0.00  0.00    +0.095 A 
ATOM      4  C15 CHE B   05     18.109  67.346  14.274  0.00  0.00    +0.092 A 
ATOM      5  N3  CHE B   05     17.707  67.028  13.025  0.00  0.00    -0.336 N 
ATOM      6  H14 CHE B   05     19.264  67.474  11.664  0.00  0.00    +0.167 HD
ENDROOT
BRANCH   3   7
ATOM      7  C8  CHE B   05     24.793  69.886  13.344  0.00  0.00    -0.017 C 
ATOM      8  C9  CHE B   05     26.336  71.435  13.811  0.00  0.00    +0.009 C 
ATOM      9  C10 CHE B   05     27.145  71.175  14.808  0.00  0.00    +0.044 C 
ATOM     10  C11 CHE B   05     24.472  65.897  15.820  0.00  0.00    +0.130 C 
ATOM     11  O3  CHE B   05     26.534  68.302  16.209  0.00  0.00    -0.468 OA
ATOM     12  C12 CHE B   05     23.355  63.187  16.596  0.00  0.00    +0.395 C 
ATOM     13  O4  CHE B   05     26.207  70.454  14.369  0.00  0.00    -0.333 OA
ATOM     14  C13 CHE B   05     26.626  71.342  14.169  0.00  0.00    +0.191 C 
ATOM     15  C14 CHE B   05     22.102  64.614  14.333  0.00  0.00    +0.077 C 
ENDBRANCH   3   7
BRANCH   1  19
ATOM     16  C2  CHE B   05     15.953  68.548   9.375  0.00  0.00    +0.063 A 
ATOM     17  C3  CHE B   05     20.628  69.080   7.658  0.00  0.00    +0.016 A 
ATOM     18  C4  CHE B   05     20.251  68.418   9.120  0.00  0.00    +0.012 A 
ATOM     19  C5  CHE B   05     21.583  68.130   9.572  0.00  0.00    +0.017 A 
ATOM     20  C21 CHE B   05     24.195  68.642   8.154  0.00  0.00    +0.012 A 
ATOM     21  C22 CHE B   05     17.284  68.260   9.826  0.00  0.00    +0.016 A 
BRANCH  16  23
ATOM     22  O1  CHE B   05     17.022  68.536   6.431  0.00  0.00    -0.241 OA
ATOM     23  C1  CHE B   05     19.946  69.758   6.293  0.00  0.00    +0.387 C 
ATOM     24  O2  CHE B   05     19.857  69.675   6.007  0.00  0.00    -0.241 OA
ENDBRANCH  16  23
ENDBRANCH   1  19
BRANCH   4  25
ATOM     25  C16 CHE B   05     22.718  69.029  13.096  0.00  0.00    +0.089 A 
ATOM     26  C17 CHE B   05     20.686  67.792  15.351  0.00  0.00    +0.030 A 
ATOM     27  C18 CHE B   05     20.907  67.724  15.816  0.00  0.00    +0.004 A 
ATOM     28  C19 CHE B   05     23.994  69.256  13.607  0.00  0.00    +0.020 A 
ATOM     29  C20 CHE B   05     23.429  69.431  12.416  0.00  0.00    +0.111 A 
ATOM     30  N2  CHE B   05     24.966  70.199  11.298  0.00  0.00    -0.253 NA
ENDBRANCH   4  25
TORSDOF 4
ENDMDL
MODEL 5
REMARK VINA RESULT:      -7.2      5.561      7.218
REMARK  Name = dock_mp/CHEMBL5/CHEMBL583549.pdb
REMARK  4 active torsions:
REMARK  status: ('A' for Active; 'I' for Inactive)
REMARK    1  A    between atoms: C1_2  and  C2_4
REMARK    2  A    between atoms: C5_7  and  C6_8
REMARK    3  A    between atoms: C7_10  and  C8_11
REMARK    4  A    between atoms: C15_20  and  C16_21
REMARK                            x       y       z     vdW  Elec       q    Type
REMARK                         _______ _______ _______ _____ _____    ______ ____
ROOT
ATOM      1  C6  CHE B   05     20.284  69.662   4.991  0.00  0.00    +0.139 A 
ATOM      2  N1  CHE B   05     21.748  69.789   6.726  0.00  0.00    -0.227 NA
ATOM      3  C7  CHE B   05     25.057  69.882   9.230  0.00  0.00    +0.095 A 
ATOM      4  C15 CHE B   05     19.640  69.933   6.617  0.00  0.00    +0.092 A 
ATOM      5  N3  CHE B   05     20.131  69.726   5.377  0.00  0.00    -0.336 N 
ATOM      6  H14 CHE B   05     22.239  69.582   5.486  0.00  0.00    +0.167 HD
ENDROOT
BRANCH   3   7
ATOM      7  C8  CHE B   05     25.508  70.064  10.805  0.00  0.00    -0.017 C 
ATOM      8  C9  CHE B   05     25.576  71.141  12.763  0.00  0.00    +0.009 C 
ATOM      9  C10 CHE B   05     26.252  70.563  13.726  0.00  0.00    +0.044 C 
ATOM     10  C11 CHE B   05     27.682  65.936  10.180  0.00  0.00    +0.130 C 
ATOM     11  O3  CHE B   05     27.573  67.732  12.817  0.00  0.00    -0.468 OA
ATOM     12  C12 CHE B   05     28.581  63.467   8.668  0.00  0.00    +0.395 C 
ATOM     13  O4  CHE B   05     26.078  70.144  12.548  0.00  0.00    -0.333 OA
ATOM     14  C13 CHE B   05     25.818  70.933  13.109  0.00  0.00    +0.191 C 
ATOM     15  C14 CHE B   05     26.924  65.450   7.237  0.00  0.00    +0.077 C 
ENDBRANCH   3   7
BRANCH   1  19
ATOM     16  C2  CHE B   05     21.784  69.792   1.296  0.00  0.00    +0.063 A 
ATOM     17  C3  CHE B   05     26.301  69.433   3.431  0.00  0.00    +0.016 A 
ATOM     18  C4  CHE B   05     24.883  69.461   4.271  0.00  0.00    +0.012 A 
ATOM     19  C5  CHE B   05     25.421  69.357   5.598  0.00  0.00    +0.017 A 
ATOM     20  C21 CHE B   05     28.309  69.157   6.439  0.00  0.00    +0.012 A 
ATOM     21  C22 CHE B   05     22.322  69.689   2.623  0.00  0.00    +0.016 A 
BRANCH  16  23
ATOM     22  O1  CHE B   05     24.499  69.150  -0.127  0.00  0.00    -0.241 OA
ATOM     23  C1  CHE B   05     26.929  69.488   1.884  0.00  0.00    +0.387 C 
ATOM     24  O2  CHE B   05     27.038  69.401   1.607  0.00  0.00    -0.241 OA
ENDBRANCH  16  23
ENDBRANCH   1  19
BRANCH   4  25
ATOM     25  C16 CHE B   05     24.034  69.941   9.098  0.00  0.00    +0.089 A 
ATOM     26  C17 CHE B   05     20.949  68.856   8.881  0.00  0.00    +0.030 A 
ATOM     27  C18 CHE B   05     20.814  68.531   9.264  0.00  0.00    +0.004 A 
ATOM     28  C19 CHE B   05     24.696  69.421  10.208  0.00  0.00    +0.020 A 
ATOM     29  C20 CHE B   05     25.042  70.253   9.229  0.00  0.00    +0.111 A 
ATOM     30  N2  CHE B   05     26.987  70.708   9.690  0.00  0.00    -0.253 NA
ENDBRANCH   4  25
TORSDOF 4
ENDMDL
MODEL 6
REMARK VINA RESULT:      -7.1      3.512      5.694
REMARK  Name = dock_mp/CHEMBL5/CHEMBL583549.pdb
REMARK  4 active torsions:
REMARK  status: ('A' for Active; 'I' for Inactive)
REMARK    1  A    between atoms: C1_2  and  C2_4
REMARK    2  A    between atoms: C5_7  and  C6_8
REMARK    3  A    between atoms: C7_10  and  C8_11
REMARK    4  A    between atoms: C15_20  and  C16_21
REMARK                            x       y       z     vdW  Elec       q    Type
REMARK                         _______ _______ _______ _____ _____    ______ ____
ROOT
ATOM      1  C6  CHE B   05     17.324  67.347  13.437  0.00  0.00    +0.139 A 
ATOM      2  N1  CHE B   05     19.517  67.579  13.986  0.00  0.00    -0.227 NA
ATOM      3  C7  CHE B   05     23.563  68.486  14.194  0.00  0.00    +0.095 A 
ATOM      4  C15 CHE B   05     17.900  66.600  14.935  0.00  0.00    +0.092 A 
ATOM      5  N3  CHE B   05     17.460  67.169  13.793  0.00  0.00    -0.336 N 
ATOM      6  H14 CHE B   05     19.078  68.148  12.843  0.00  0.00    +0.167 HD
ENDROOT
BRANCH   3   7
ATOM      7  C8  CHE B   05     24.910  68.278  15.120  0.00  0.00    -0.017 C 
ATOM      8  C9  CHE B   05     26.029  68.227  17.055  0.00  0.00    +0.009 C 
ATOM      9  C10 CHE B   05     27.303  67.931  16.988  0.00  0.00    +0.044 C 
ATOM     10  C11 CHE B   05     27.031  67.369  11.018  0.00  0.00    +0.130 C 
ATOM     11  O3  CHE B   05     28.310  67.384  13.942  0.00  0.00    -0.468 OA
ATOM     12  C12 CHE B   05     27.240  67.007   8.015  0.00  0.00    +0.395 C 
ATOM     13  O4  CHE B   05     26.481  68.017  16.034  0.00  0.00    -0.333 OA
ATOM     14  C13 CHE B   05     26.486  68.120  17.031  0.00  0.00    +0.191 C 
ATOM     15  C14 CHE B   05     24.609  67.722   9.152  0.00  0.00    +0.077 C 
ENDBRANCH   3   7
BRANCH   1  19
ATOM     16  C2  CHE B   05     17.024  66.718   9.509  0.00  0.00    +0.063 A 
ATOM     17  C3  CHE B   05     21.311  69.271   9.068  0.00  0.00    +0.016 A 
ATOM     18  C4  CHE B   05     20.556  68.976  10.503  0.00  0.00    +0.012 A 
ATOM     19  C5  CHE B   05     21.486  69.639  11.372  0.00  0.00    +0.017 A 
ATOM     20  C21 CHE B   05     24.023  71.096  10.641  0.00  0.00    +0.012 A 
ATOM     21  C22 CHE B   05     17.954  67.382  10.377  0.00  0.00    +0.016 A 
BRANCH  16  23
ATOM     22  O1  CHE B   05     18.474  67.470   6.836  0.00  0.00    -0.241 OA
ATOM     23  C1  CHE B   05     21.185  69.008   7.424  0.00  0.00    +0.387 C 
ATOM     24  O2  CHE B   05     21.150  68.980   7.117  0.00  0.00    -0.241 OA
ENDBRANCH  16  23
ENDBRANCH   1  19
BRANCH   4  25
ATOM     25  C16 CHE B   05     22.726  68.033  14.597  0.00  0.00    +0.089 A 
ATOM     26  C17 CHE B   05     20.552  65.631  15.094  0.00  0.00    +0.030 A 
ATOM     27  C18 CHE B   05     20.769  65.167  15.183  0.00  0.00    +0.004 A 
ATOM     28  C19 CHE B   05     24.040  67.575  14.671  0.00  0.00    +0.020 A 
ATOM     29  C20 CHE B   05     23.484  68.762  14.445  0.00  0.00    +0.111 A 
ATOM     30  N2  CHE B   05     25.113  69.979  14.186  0.00  0.00    -0.253 NA
ENDBRANCH   4  25
TORSDOF 4
ENDMDL
MODEL 7
REMARK VINA RESULT:      -6.9      3.906      6.691
REMARK  Name = dock_mp/CHEMBL5/CHEMBL583549.pdb
REMARK  4 active torsions:
REMARK  status: ('A' for Active; 'I' for Inactive)
REMARK    1  A    between atoms: C1_2  and  C2_4
REMARK    2  A    between atoms: C5_7  and  C6_8
REMARK    3  A    between atoms: C7_10  and  C8_11
REMARK    4  A    between atoms: C15_20  and  C16_21
REMARK                            x       y       z     vdW  Elec       q    Type
REMARK                         _______ _______ _______ _____ _____    ______ ____
ROOT
ATOM      1  C6  CHE B   05     18.773  68.374  11.382  0.00  0.00    +0.139 A 
ATOM      2  N1  CHE B   05     20.864  69.068  11.940  0.00  0.00    -0.227 NA
ATOM      3  C7  CHE B   05     24.839  70.259  12.045  0.00  0.00    +0.095 A 
ATOM      4  C15 CHE B   05     19.123  68.706  13.085  0.00  0.00    +0.092 A 
ATOM      5  N3  CHE B   05     18.856  68.453  11.786  0.00  0.00    -0.336 N 
ATOM      6  H14 CHE B   05     20.597  68.815  10.641  0.00  0.00    +0.167 HD
ENDROOT
BRANCH   3   7
ATOM      7  C8  CHE B   05     26.037  70.750  13.065  0.00  0.00    -0.017 C 
ATOM      8  C9  CHE B   05     26.900  72.036  14.678  0.00  0.00    +0.009 C 
ATOM      9  C10 CHE B   05     28.140  71.790  15.023  0.00  0.00    +0.044 C 
ATOM     10  C11 CHE B   05     28.552  67.340  11.017  0.00  0.00    +0.130 C 
ATOM     11  O3  CHE B   05     29.458  69.345  13.329  0.00  0.00    -0.468 OA
ATOM     12  C12 CHE B   05     29.094  65.048   9.107  0.00  0.00    +0.395 C 
ATOM     13  O4  CHE B   05     27.453  71.198  14.145  0.00  0.00    -0.333 OA
ATOM     14  C13 CHE B   05     27.345  71.948  14.802  0.00  0.00    +0.191 C 
ATOM     15  C14 CHE B   05     26.421  66.305   9.051  0.00  0.00    +0.077 C 
ENDBRANCH   3   7
BRANCH   1  19
ATOM     16  C2  CHE B   05     17.690  69.185   7.628  0.00  0.00    +0.063 A 
ATOM     17  C3  CHE B   05     22.564  69.824   6.669  0.00  0.00    +0.016 A 
ATOM     18  C4  CHE B   05     21.960  69.418   8.148  0.00  0.00    +0.012 A 
ATOM     19  C5  CHE B   05     23.199  69.349   8.870  0.00  0.00    +0.017 A 
ATOM     20  C21 CHE B   05     25.994  69.829   7.848  0.00  0.00    +0.012 A 
ATOM     21  C22 CHE B   05     18.928  69.115   8.351  0.00  0.00    +0.016 A 
BRANCH  16  23
ATOM     22  O1  CHE B   05     19.025  69.485   4.812  0.00  0.00    -0.241 OA
ATOM     23  C1  CHE B   05     22.110  70.164   5.098  0.00  0.00    +0.387 C 
ATOM     24  O2  CHE B   05     22.038  70.148   4.796  0.00  0.00    -0.241 OA
ENDBRANCH  16  23
ENDBRANCH   1  19
BRANCH   4  25
ATOM     25  C16 CHE B   05     23.952  70.062  12.536  0.00  0.00    +0.089 A 
ATOM     26  C17 CHE B   05     21.694  68.387  14.220  0.00  0.00    +0.030 A 
ATOM     27  C18 CHE B   05     21.886  68.128  14.628  0.00  0.00    +0.004 A 
ATOM     28  C19 CHE B   05     25.226  69.918  13.080  0.00  0.00    +0.020 A 
ATOM     29  C20 CHE B   05     24.734  70.581  12.037  0.00  0.00    +0.111 A 
ATOM     30  N2  CHE B   05     26.399  71.483  11.252  0.00  0.00    -0.253 NA
ENDBRANCH   4  25
TORSDOF 4
ENDMDL
MODEL 8
REMARK VINA RESULT:      -6.9      4.591      8.232
REMARK  Name = dock_mp/CHEMBL5/CHEMBL583549.pdb
REMARK  4 active torsions:
REMARK  status: ('A' for Active; 'I' for Inactive)
REMARK    1  A    between atoms: C1_2  and  C2_4
REMARK    2  A    between atoms: C5_7  and  C6_8
REMARK    3  A    between atoms: C7_10  and  C8_11
REMARK    4  A    between atoms: C15_20  and  C16_21
REMARK                            x       y       z     vdW  Elec       q    Type
REMARK                         _______ _______ _______ _____ _____    ______ ____
ROOT
ATOM      1  C6  CHE B   05     27.528  70.715   8.469  0.00  0.00    +0.139 A 
ATOM      2  N1  CHE B   05     25.297  70.300   8.339  0.00  0.00    -0.227 NA
ATOM      3  C7  CHE B   05     21.390  69.499   7.187  0.00  0.00    +0.095 A 
ATOM      4  C15 CHE B   05     26.592  70.666   9.971  0.00  0.00    +0.092 A 
ATOM      5  N3  CHE B   05     27.306  70.704   8.826  0.00  0.00    -0.336 N 
ATOM      6  H14 CHE B   05     26.010  70.338   7.194  0.00  0.00    +0.167 HD
ENDROOT
BRANCH   3   7
ATOM      7  C8  CHE B   05     19.867  69.270   7.775  0.00  0.00    -0.017 C 
ATOM      8  C9  CHE B   05     17.638  69.413   7.686  0.00  0.00    +0.009 C 
ATOM      9  C10 CHE B   05     16.978  68.927   8.709  0.00  0.00    +0.044 C 
ATOM     10  C11 CHE B   05     22.073  67.323  11.449  0.00  0.00    +0.130 C 
ATOM     11  O3  CHE B   05     18.934  67.689  10.996  0.00  0.00    -0.468 OA
ATOM     12  C12 CHE B   05     24.441  66.390  13.096  0.00  0.00    +0.395 C 
ATOM     13  O4  CHE B   05     18.229  68.956   8.542  0.00  0.00    -0.333 OA
ATOM     14  C13 CHE B   05     17.401  69.239   8.053  0.00  0.00    +0.191 C 
ATOM     15  C14 CHE B   05     24.977  67.678  10.491  0.00  0.00    +0.077 C 
ENDBRANCH   3   7
BRANCH   1  19
ATOM     16  C2  CHE B   05     29.670  69.245   5.441  0.00  0.00    +0.063 A 
ATOM     17  C3  CHE B   05     25.353  68.929   2.923  0.00  0.00    +0.016 A 
ATOM     18  C4  CHE B   05     25.482  69.496   4.465  0.00  0.00    +0.012 A 
ATOM     19  C5  CHE B   05     24.096  69.791   4.698  0.00  0.00    +0.017 A 
ATOM     20  C21 CHE B   05     21.760  69.427   2.827  0.00  0.00    +0.012 A 
ATOM     21  C22 CHE B   05     28.285  69.540   5.675  0.00  0.00    +0.016 A 
BRANCH  16  23
ATOM     22  O1  CHE B   05     29.119  69.464   2.366  0.00  0.00    -0.241 OA
ATOM     23  C1  CHE B   05     26.249  68.314   1.655  0.00  0.00    +0.387 C 
ATOM     24  O2  CHE B   05     26.386  68.412   1.395  0.00  0.00    -0.241 OA
ENDBRANCH  16  23
ENDBRANCH   1  19
BRANCH   4  25
ATOM     25  C16 CHE B   05     22.082  69.685   7.931  0.00  0.00    +0.089 A 
ATOM     26  C17 CHE B   05     23.816  71.046  10.357  0.00  0.00    +0.030 A 
ATOM     27  C18 CHE B   05     23.523  71.278  10.718  0.00  0.00    +0.004 A 
ATOM     28  C19 CHE B   05     20.711  69.861   8.103  0.00  0.00    +0.020 A 
ATOM     29  C20 CHE B   05     21.460  69.267   7.178  0.00  0.00    +0.111 A 
ATOM     30  N2  CHE B   05     20.062  68.551   5.860  0.00  0.00    -0.253 NA
ENDBRANCH   4  25
TORSDOF 4
ENDMDL
MODEL 9
REMARK VINA RESULT:      -6.9      2.234      2.537
REMARK  Name = dock_mp/CHEMBL5/CHEMBL583549.pdb
REMARK  4 active torsions:
REMARK  status: ('A' for Active; 'I' for Inactive)
REMARK    1  A    between atoms: C1_2  and  C2_4
REMARK    2  A    between atoms: C5_7  and  C6_8
REMARK    3  A    between atoms: C7_10  and  C8_11
REMARK    4  A    between atoms: C15_20  and  C16_21
REMARK                            x       y       z     vdW  Elec       q    Type
REMARK                         _______ _______ _______ _____ _____    ______ ____
ROOT
ATOM      1  C6  CHE B   05     17.151  68.664   9.042  0.00  0.00    +0.139 A 
ATOM      2  N1  CHE B   05     18.431  68.418  10.903  0.00  0.00    -0.227 NA
ATOM      3  C7  CHE B   05     21.390  68.462  13.815  0.00  0.00    +0.095 A 
ATOM      4  C15 CHE B   05     16.481  67.762  10.410  0.00  0.00    +0.092 A 
ATOM      5  N3  CHE B   05     16.992  68.450   9.366  0.00  0.00    -0.336 N 
ATOM      6  H14 CHE B   05     18.942  69.106   9.860  0.00  0.00    +0.167 HD
ENDROOT
BRANCH   3   7
ATOM      7  C8  CHE B   05     21.739  67.947  15.341  0.00  0.00    -0.017 C 
ATOM      8  C9  CHE B   05     21.399  67.828  17.548  0.00  0.00    +0.009 C 
ATOM      9  C10 CHE B   05     22.239  67.091  18.231  0.00  0.00    +0.044 C 
ATOM     10  C11 CHE B   05     25.292  65.664  13.265  0.00  0.00    +0.130 C 
ATOM     11  O3  CHE B   05     24.519  65.716  16.361  0.00  0.00    -0.468 OA
ATOM     12  C12 CHE B   05     27.047  64.750  10.966  0.00  0.00    +0.395 C 
ATOM     13  O4  CHE B   05     22.236  67.302  16.987  0.00  0.00    -0.333 OA
ATOM     14  C13 CHE B   05     21.700  67.563  17.793  0.00  0.00    +0.191 C 
ATOM     15  C14 CHE B   05     24.773  66.536  10.359  0.00  0.00    +0.077 C 
ENDBRANCH   3   7
BRANCH   1  19
ATOM     16  C2  CHE B   05     19.540  67.826   5.958  0.00  0.00    +0.063 A 
ATOM     17  C3  CHE B   05     23.289  69.627   8.749  0.00  0.00    +0.016 A 
ATOM     18  C4  CHE B   05     21.720  69.554   9.248  0.00  0.00    +0.012 A 
ATOM     19  C5  CHE B   05     21.887  70.118  10.558  0.00  0.00    +0.017 A 
ATOM     20  C21 CHE B   05     24.420  71.100  11.866  0.00  0.00    +0.012 A 
ATOM     21  C22 CHE B   05     19.708  68.391   7.267  0.00  0.00    +0.016 A 
BRANCH  16  23
ATOM     22  O1  CHE B   05     21.986  69.673   5.313  0.00  0.00    -0.241 OA
ATOM     23  C1  CHE B   05     24.289  69.277   7.459  0.00  0.00    +0.387 C 
ATOM     24  O2  CHE B   05     24.380  69.488   7.251  0.00  0.00    -0.241 OA
ENDBRANCH  16  23
ENDBRANCH   1  19
BRANCH   4  25
ATOM     25  C16 CHE B   05     20.447  68.177  13.503  0.00  0.00    +0.089 A 
ATOM     26  C17 CHE B   05     17.395  67.093  13.002  0.00  0.00    +0.030 A 
ATOM     27  C18 CHE B   05     17.192  66.841  13.409  0.00  0.00    +0.004 A 
ATOM     28  C19 CHE B   05     20.915  67.857  14.775  0.00  0.00    +0.020 A 
ATOM     29  C20 CHE B   05     21.433  68.500  13.732  0.00  0.00    +0.111 A 
ATOM     30  N2  CHE B   05     23.300  69.015  14.403  0.00  0.00    -0.253 NA
ENDBRANCH   4  25
TORSDOF 4
ENDMDL
MODEL 10
REMARK VINA RESULT:      -6.9      3.550      7.050
REMARK  Name = dock_mp/CHEMBL5/CHEMBL583549.pdb
REMARK  4 active torsions:
REMARK  status: ('A' for Active; 'I' for Inactive)
REMARK    1  A    between atoms: C1_2  and  C2_4
REMARK    2  A    between atoms: C5_7  and  C6_8
REMARK    3  A    between atoms: C7_10  and  C8_11
REMARK    4  A    between atoms: C15_20  and  C16_21
REMARK                            x       y       z     vdW  Elec       q    Type
REMARK                         _______ _______ _______ _____ _____    ______ ____
ROOT
ATOM      1  C6  CHE B   05     18.951  66.672  13.858  0.00  0.00    +0.139 A 
ATOM      2  N1  CHE B   05     20.967  67.719  13.785  0.00  0.00    -0.227 NA
ATOM      3  C7  CHE B   05     24.497  69.632  12.733  0.00  0.00    +0.095 A 
ATOM      4  C15 CHE B   05     19.795  66.978  15.383  0.00  0.00    +0.092 A 
ATOM      5  N3  CHE B   05     19.151  66.744  14.220  0.00  0.00    -0.336 N 
ATOM      6  H14 CHE B   05     20.322  67.485  12.622  0.00  0.00    +0.167 HD
ENDROOT
BRANCH   3   7
ATOM      7  C8  CHE B   05     25.873  70.290  13.360  0.00  0.00    -0.017 C 
ATOM      8  C9  CHE B   05     27.028  71.848  14.472  0.00  0.00    +0.009 C 
ATOM      9  C10 CHE B   05     28.318  71.651  14.586  0.00  0.00    +0.044 C 
ATOM     10  C11 CHE B   05     27.973  66.498  11.526  0.00  0.00    +0.130 C 
ATOM     11  O3  CHE B   05     29.303  68.897  13.158  0.00  0.00    -0.468 OA
ATOM     12  C12 CHE B   05     28.150  63.869  10.026  0.00  0.00    +0.395 C 
ATOM     13  O4  CHE B   05     27.474  70.912  14.006  0.00  0.00    -0.333 OA
ATOM     14  C13 CHE B   05     27.491  71.777  14.513  0.00  0.00    +0.191 C 
ATOM     15  C14 CHE B   05     25.498  65.142  10.297  0.00  0.00    +0.077 C 
ENDBRANCH   3   7
BRANCH   1  19
ATOM     16  C2  CHE B   05     16.495  68.008  11.011  0.00  0.00    +0.063 A 
ATOM     17  C3  CHE B   05     20.613  69.371   8.507  0.00  0.00    +0.016 A 
ATOM     18  C4  CHE B   05     20.631  68.640   9.984  0.00  0.00    +0.012 A 
ATOM     19  C5  CHE B   05     22.053  68.587  10.177  0.00  0.00    +0.017 A 
ATOM     20  C21 CHE B   05     24.232  69.564   8.336  0.00  0.00    +0.012 A 
ATOM     21  C22 CHE B   05     17.917  67.955  11.204  0.00  0.00    +0.016 A 
BRANCH  16  23
ATOM     22  O1  CHE B   05     16.591  69.561   8.293  0.00  0.00    -0.241 OA
ATOM     23  C1  CHE B   05     19.585  69.931   7.315  0.00  0.00    +0.387 C 
ATOM     24  O2  CHE B   05     19.395  70.061   7.108  0.00  0.00    -0.241 OA
ENDBRANCH  16  23
ENDBRANCH   1  19
BRANCH   4  25
ATOM     25  C16 CHE B   05     23.871  69.247  13.459  0.00  0.00    +0.089 A 
ATOM     26  C17 CHE B   05     22.603  67.176  15.660  0.00  0.00    +0.030 A 
ATOM     27  C18 CHE B   05     22.958  66.962  15.975  0.00  0.00    +0.004 A 
ATOM     28  C19 CHE B   05     25.255  69.358  13.579  0.00  0.00    +0.020 A 
ATOM     29  C20 CHE B   05     24.348  69.905  12.774  0.00  0.00    +0.111 A 
ATOM     30  N2  CHE B   05     25.486  71.109  11.567  0.00  0.00    -0.253 NA
ENDBRANCH   4  25
TORSDOF 4
ENDMDL
