MODEL 1
REMARK VINA RESULT:      -7.9      0.000      0.000
REMARK  Name = dock_mp/CHEMBL5/CHEMBL567505.pdb
REMARK  8 active torsions:
REMARK  status: ('A' for Active; 'I' for Inactive)
REMARK    1  A    between atoms: C1_1  and  C2_2
REMARK    2  A    between atoms: C2_2  and  C3_3
REMARK    3  A    between atoms: C7_7  and  C8_8
REMARK    4  A    between atoms: C9_10  and  C10_11
REMARK    5  A    between atoms: C10_11  and  N2_12
REMARK    6  A    between atoms: N2_12  and  C11_13
REMARK    7  A    between atoms: C14_16  and  C15_17
REMARK    8  A    between atoms: C18_22  and  C19_23
REMARK                            x       y       z     vdW  Elec       q    Type
REMARK                         _______ _______ _______ _____ _____    ______ ____
ROOT
ATOM      1  C8  CHE B   05     24.178  71.682  10.694  0.00  0.00    +0.093 A 
ATOM      2  N1  CHE B   05     25.055  70.727  10.594  0.00  0.00    -0.339 N 
ATOM      3  C9  CHE B   05     23.205  68.317  10.759  0.00  0.00    +0.125 A 
ATOM      4  N4  CHE B   05     24.006  70.394  10.699  0.00  0.00    -0.230 NA
ATOM      5  C18 CHE B   05     21.775  69.873  10.923  0.00  0.00    +0.098 A 
ATOM      6  H9  CHE B   05     20.320  65.558  11.028  0.00  0.00    +0.167 HD
ENDROOT
BRANCH   5   7
ATOM      7  C19 CHE B   05     16.558  66.704  11.428  0.00  0.00    +0.000 C 
ATOM      8  C20 CHE B   05     19.117  68.075  10.666  0.00  0.00    +0.007 C 
ATOM      9  C21 CHE B   05     23.270  69.889   8.276  0.00  0.00    +0.118 C 
ATOM     10  N5  CHE B   05     17.351  66.907  10.568  0.00  0.00    -0.340 N 
ATOM     11  C22 CHE B   05     19.824  67.915   8.943  0.00  0.00    +0.083 C 
ATOM     12  C23 CHE B   05     21.432  68.413   7.443  0.00  0.00    +0.083 C 
ATOM     13  N6  CHE B   05     22.276  68.831   7.097  0.00  0.00    -0.340 N 
ATOM     14  C24 CHE B   05     19.753  67.611   8.217  0.00  0.00    +0.117 C 
ATOM     15  C25 CHE B   05     16.352  65.826   9.334  0.00  0.00    -0.002 C 
ATOM     16  C26 CHE B   05     17.293  66.660   9.980  0.00  0.00    +0.007 C 
ATOM     17  H19 CHE B   05     21.699  69.550  10.152  0.00  0.00    +0.146 HD
ATOM     18  H22 CHE B   05     23.099  69.165   6.549  0.00  0.00    +0.146 HD
ENDBRANCH   5   7
BRANCH   1  23
ATOM     19  C3  CHE B   05     23.070  71.400  11.244  0.00  0.00    +0.042 A 
ATOM     20  C4  CHE B   05     17.861  68.221  11.789  0.00  0.00    +0.023 A 
ATOM     21  C5  CHE B   05     18.371  69.121  12.383  0.00  0.00    +0.004 A 
ATOM     22  C6  CHE B   05     17.079  67.602  11.714  0.00  0.00    +0.030 A 
ATOM     23  C7  CHE B   05     20.720  69.547  11.029  0.00  0.00    +0.090 A 
ATOM     24  N7  CHE B   05     22.531  70.530  10.706  0.00  0.00    -0.250 NA
BRANCH  19  26
ATOM     25  C1  CHE B   05     21.898  64.234  14.603  0.00  0.00    +0.010 C 
ATOM     26  C2  CHE B   05     23.375  71.084  10.660  0.00  0.00    +0.052 C 
ENDBRANCH  19  26
ENDBRANCH   1  23
BRANCH   3  27
ATOM     27  C10 CHE B   05     23.404  66.625  10.721  0.00  0.00    +0.175 C 
BRANCH  27  28
ATOM     28  N2  CHE B   05     27.088  63.460   9.272  0.00  0.00    -0.337 N 
ATOM     29  H12 CHE B   05     24.909  65.329  10.229  0.00  0.00    +0.147 HD
BRANCH  28  30
ATOM     30  C11 CHE B   05     21.376  68.283  14.471  0.00  0.00    +0.028 A 
ATOM     31  C12 CHE B   05     23.392  67.736  13.946  0.00  0.00    +0.024 A 
ATOM     32  C13 CHE B   05     26.504  66.975  13.233  0.00  0.00    +0.020 A 
ATOM     33  C14 CHE B   05     28.372  66.324  12.583  0.00  0.00    +0.052 A 
ATOM     34  C16 CHE B   05     27.853  65.960  12.145  0.00  0.00    +0.020 A 
ATOM     35  C17 CHE B   05     26.958  65.331  11.389  0.00  0.00    +0.024 A 
BRANCH  33  36
ATOM     36  C15 CHE B   05     27.843  67.916  14.364  0.00  0.00    +0.099 C 
ATOM     37  N3  CHE B   05     26.397  72.357  16.481  0.00  0.00    -0.191 NA
ENDBRANCH  33  36
ENDBRANCH  28  30
ENDBRANCH  27  28
ENDBRANCH   3  27
TORSDOF 7
ENDMDL
MODEL 2
REMARK VINA RESULT:      -7.8      2.485      6.551
REMARK  Name = dock_mp/CHEMBL5/CHEMBL567505.pdb
REMARK  8 active torsions:
REMARK  status: ('A' for Active; 'I' for Inactive)
REMARK    1  A    between atoms: C1_1  and  C2_2
REMARK    2  A    between atoms: C2_2  and  C3_3
REMARK    3  A    between atoms: C7_7  and  C8_8
REMARK    4  A    between atoms: C9_10  and  C10_11
REMARK    5  A    between atoms: C10_11  and  N2_12
REMARK    6  A    between atoms: N2_12  and  C11_13
REMARK    7  A    between atoms: C14_16  and  C15_17
REMARK    8  A    between atoms: C18_22  and  C19_23
REMARK                            x       y       z     vdW  Elec       q    Type
REMARK                         _______ _______ _______ _____ _____    ______ ____
ROOT
ATOM      1  C8  CHE B   05     20.656  68.500   8.334  0.00  0.00    +0.093 A 
ATOM      2  N1  CHE B   05     20.615  69.765   8.629  0.00  0.00    -0.339 N 
ATOM      3  C9  CHE B   05     22.840  69.878  10.702  0.00  0.00    +0.125 A 
ATOM      4  N4  CHE B   05     21.377  69.180   9.175  0.00  0.00    -0.230 NA
ATOM      5  C18 CHE B   05     22.906  67.814  10.221  0.00  0.00    +0.098 A 
ATOM      6  H9  CHE B   05     25.826  69.424  13.325  0.00  0.00    +0.167 HD
ENDROOT
BRANCH   5   7
ATOM      7  C19 CHE B   05     27.426  65.848  13.857  0.00  0.00    +0.000 C 
ATOM      8  C20 CHE B   05     25.595  67.133  11.857  0.00  0.00    +0.007 C 
ATOM      9  C21 CHE B   05     23.486  69.935   8.122  0.00  0.00    +0.118 C 
ATOM     10  N5  CHE B   05     27.326  66.635  12.973  0.00  0.00    -0.340 N 
ATOM     11  C22 CHE B   05     26.221  68.429  10.664  0.00  0.00    +0.083 C 
ATOM     12  C23 CHE B   05     25.835  69.872   8.975  0.00  0.00    +0.083 C 
ATOM     13  N6  CHE B   05     25.302  70.354   8.276  0.00  0.00    -0.340 N 
ATOM     14  C24 CHE B   05     26.831  68.858  10.404  0.00  0.00    +0.117 C 
ATOM     15  C25 CHE B   05     29.188  67.086  13.108  0.00  0.00    -0.002 C 
ATOM     16  C26 CHE B   05     27.820  66.982  12.763  0.00  0.00    +0.007 C 
ATOM     17  H19 CHE B   05     23.555  68.270   9.945  0.00  0.00    +0.146 HD
ATOM     18  H22 CHE B   05     24.939  70.956   7.504  0.00  0.00    +0.146 HD
ENDBRANCH   5   7
BRANCH   1  23
ATOM     19  C3  CHE B   05     21.235  67.637   9.061  0.00  0.00    +0.042 A 
ATOM     20  C4  CHE B   05     25.737  65.663  12.718  0.00  0.00    +0.023 A 
ATOM     21  C5  CHE B   05     24.731  65.194  12.283  0.00  0.00    +0.004 A 
ATOM     22  C6  CHE B   05     26.549  65.527  13.285  0.00  0.00    +0.030 A 
ATOM     23  C7  CHE B   05     23.668  67.219  10.765  0.00  0.00    +0.090 A 
ATOM     24  N7  CHE B   05     22.220  68.041   9.510  0.00  0.00    -0.250 NA
BRANCH  19  26
ATOM     25  C1  CHE B   05     21.401  69.213  16.903  0.00  0.00    +0.010 C 
ATOM     26  C2  CHE B   05     21.453  68.317   8.912  0.00  0.00    +0.052 C 
ENDBRANCH  19  26
ENDBRANCH   1  23
BRANCH   3  27
ATOM     27  C10 CHE B   05     23.544  71.093  11.667  0.00  0.00    +0.175 C 
BRANCH  27  28
ATOM     28  N2  CHE B   05     28.181  72.013  13.494  0.00  0.00    -0.337 N 
ATOM     29  H12 CHE B   05     25.398  71.400  12.475  0.00  0.00    +0.147 HD
BRANCH  28  30
ATOM     30  C11 CHE B   05     19.818  68.560  12.462  0.00  0.00    +0.028 A 
ATOM     31  C12 CHE B   05     21.715  68.552  13.483  0.00  0.00    +0.024 A 
ATOM     32  C13 CHE B   05     24.565  68.448  15.106  0.00  0.00    +0.020 A 
ATOM     33  C14 CHE B   05     26.454  68.593  15.970  0.00  0.00    +0.052 A 
ATOM     34  C16 CHE B   05     26.427  69.132  15.421  0.00  0.00    +0.020 A 
ATOM     35  C17 CHE B   05     26.381  70.063  14.471  0.00  0.00    +0.024 A 
BRANCH  33  36
ATOM     36  C15 CHE B   05     24.634  67.056  16.527  0.00  0.00    +0.099 C 
ATOM     37  N3  CHE B   05     20.126  64.662  16.025  0.00  0.00    -0.191 NA
ENDBRANCH  33  36
ENDBRANCH  28  30
ENDBRANCH  27  28
ENDBRANCH   3  27
TORSDOF 7
ENDMDL
MODEL 3
REMARK VINA RESULT:      -7.7      3.079      6.102
REMARK  Name = dock_mp/CHEMBL5/CHEMBL567505.pdb
REMARK  8 active torsions:
REMARK  status: ('A' for Active; 'I' for Inactive)
REMARK    1  A    between atoms: C1_1  and  C2_2
REMARK    2  A    between atoms: C2_2  and  C3_3
REMARK    3  A    between atoms: C7_7  and  C8_8
REMARK    4  A    between atoms: C9_10  and  C10_11
REMARK    5  A    between atoms: C10_11  and  N2_12
REMARK    6  A    between atoms: N2_12  and  C11_13
REMARK    7  A    between atoms: C14_16  and  C15_17
REMARK    8  A    between atoms: C18_22  and  C19_23
REMARK                            x       y       z     vdW  Elec       q    Type
REMARK                         _______ _______ _______ _____ _____    ______ ____
ROOT
ATOM      1  C8  CHE B   05     21.799  70.619   9.762  0.00  0.00    +0.093 A 
ATOM      2  N1  CHE B   05     22.882  70.076   9.290  0.00  0.00    -0.339 N 
ATOM      3  C9  CHE B   05     23.125  67.701  11.177  0.00  0.00    +0.125 A 
ATOM      4  N4  CHE B   05     22.430  69.551  10.151  0.00  0.00    -0.230 NA
ATOM      5  C18 CHE B   05     21.360  68.587  11.947  0.00  0.00    +0.098 A 
ATOM      6  H9  CHE B   05     22.933  64.793  13.918  0.00  0.00    +0.167 HD
ENDROOT
BRANCH   5   7
ATOM      7  C19 CHE B   05     19.973  64.777  16.538  0.00  0.00    +0.000 C 
ATOM      8  C20 CHE B   05     21.107  66.742  14.574  0.00  0.00    +0.007 C 
ATOM      9  C21 CHE B   05     23.968  70.148  12.030  0.00  0.00    +0.118 C 
ATOM     10  N5  CHE B   05     20.875  65.503  16.277  0.00  0.00    -0.340 N 
ATOM     11  C22 CHE B   05     22.757  67.569  14.875  0.00  0.00    +0.083 C 
ATOM     12  C23 CHE B   05     24.371  68.995  14.211  0.00  0.00    +0.083 C 
ATOM     13  N6  CHE B   05     24.829  69.661  13.616  0.00  0.00    -0.340 N 
ATOM     14  C24 CHE B   05     23.385  67.654  15.347  0.00  0.00    +0.117 C 
ATOM     15  C25 CHE B   05     21.784  65.023  17.900  0.00  0.00    -0.002 C 
ATOM     16  C26 CHE B   05     21.384  65.572  16.660  0.00  0.00    +0.007 C 
ATOM     17  H19 CHE B   05     22.027  68.677  12.449  0.00  0.00    +0.146 HD
ATOM     18  H22 CHE B   05     25.461  70.350  13.153  0.00  0.00    +0.146 HD
ENDBRANCH   5   7
BRANCH   1  23
ATOM     19  C3  CHE B   05     20.993  69.971  10.496  0.00  0.00    +0.042 A 
ATOM     20  C4  CHE B   05     19.588  66.142  15.068  0.00  0.00    +0.023 A 
ATOM     21  C5  CHE B   05     18.967  66.766  14.263  0.00  0.00    +0.004 A 
ATOM     22  C6  CHE B   05     19.560  65.507  15.840  0.00  0.00    +0.030 A 
ATOM     23  C7  CHE B   05     20.900  68.067  12.812  0.00  0.00    +0.090 A 
ATOM     24  N7  CHE B   05     21.544  69.346  11.297  0.00  0.00    -0.250 NA
BRANCH  19  26
ATOM     25  C1  CHE B   05     20.498  73.030  17.872  0.00  0.00    +0.010 C 
ATOM     26  C2  CHE B   05     21.722  69.983  10.532  0.00  0.00    +0.052 C 
ENDBRANCH  19  26
ENDBRANCH   1  23
BRANCH   3  27
ATOM     27  C10 CHE B   05     24.214  66.403  11.367  0.00  0.00    +0.175 C 
BRANCH  27  28
ATOM     28  N2  CHE B   05     25.607  63.396  15.201  0.00  0.00    -0.337 N 
ATOM     29  H12 CHE B   05     24.862  65.178  12.871  0.00  0.00    +0.147 HD
BRANCH  28  30
ATOM     30  C11 CHE B   05     25.770  68.147   7.434  0.00  0.00    +0.028 A 
ATOM     31  C12 CHE B   05     26.034  66.277   8.470  0.00  0.00    +0.024 A 
ATOM     32  C13 CHE B   05     26.465  63.376   9.943  0.00  0.00    +0.020 A 
ATOM     33  C14 CHE B   05     26.670  61.668  11.116  0.00  0.00    +0.052 A 
ATOM     34  C16 CHE B   05     26.461  62.233  11.595  0.00  0.00    +0.020 A 
ATOM     35  C17 CHE B   05     26.101  63.210  12.423  0.00  0.00    +0.024 A 
BRANCH  33  36
ATOM     36  C15 CHE B   05     27.004  61.915   8.704  0.00  0.00    +0.099 C 
ATOM     37  N3  CHE B   05     29.565  62.630   4.319  0.00  0.00    -0.191 NA
ENDBRANCH  33  36
ENDBRANCH  28  30
ENDBRANCH  27  28
ENDBRANCH   3  27
TORSDOF 7
ENDMDL
MODEL 4
REMARK VINA RESULT:      -7.7      2.596      5.278
REMARK  Name = dock_mp/CHEMBL5/CHEMBL567505.pdb
REMARK  8 active torsions:
REMARK  status: ('A' for Active; 'I' for Inactive)
REMARK    1  A    between atoms: C1_1  and  C2_2
REMARK    2  A    between atoms: C2_2  and  C3_3
REMARK    3  A    between atoms: C7_7  and  C8_8
REMARK    4  A    between atoms: C9_10  and  C10_11
REMARK    5  A    between atoms: C10_11  and  N2_12
REMARK    6  A    between atoms: N2_12  and  C11_13
REMARK    7  A    between atoms: C14_16  and  C15_17
REMARK    8  A    between atoms: C18_22  and  C19_23
REMARK                            x       y       z     vdW  Elec       q    Type
REMARK                         _______ _______ _______ _____ _____    ______ ____
ROOT
ATOM      1  C8  CHE B   05     26.461  68.735   8.112  0.00  0.00    +0.093 A 
ATOM      2  N1  CHE B   05     26.958  68.117   9.142  0.00  0.00    -0.339 N 
ATOM      3  C9  CHE B   05     24.390  67.078  10.401  0.00  0.00    +0.125 A 
ATOM      4  N4  CHE B   05     25.857  68.075   9.054  0.00  0.00    -0.230 NA
ATOM      5  C18 CHE B   05     23.579  68.086   8.721  0.00  0.00    +0.098 A 
ATOM      6  H9  CHE B   05     20.728  65.987  11.588  0.00  0.00    +0.167 HD
ENDROOT
BRANCH   5   7
ATOM      7  C19 CHE B   05     17.583  67.078   9.456  0.00  0.00    +0.000 C 
ATOM      8  C20 CHE B   05     20.482  67.844   9.568  0.00  0.00    +0.007 C 
ATOM      9  C21 CHE B   05     25.096  69.696  10.808  0.00  0.00    +0.118 C 
ATOM     10  N5  CHE B   05     18.431  67.645  10.063  0.00  0.00    -0.340 N 
ATOM     11  C22 CHE B   05     21.163  68.854  10.987  0.00  0.00    +0.083 C 
ATOM     12  C23 CHE B   05     22.903  69.874  11.994  0.00  0.00    +0.083 C 
ATOM     13  N6  CHE B   05     23.851  70.176  12.118  0.00  0.00    -0.340 N 
ATOM     14  C24 CHE B   05     21.022  69.226  11.669  0.00  0.00    +0.117 C 
ATOM     15  C25 CHE B   05     17.176  68.153  11.425  0.00  0.00    -0.002 C 
ATOM     16  C26 CHE B   05     18.317  67.946  10.616  0.00  0.00    +0.007 C 
ATOM     17  H19 CHE B   05     23.429  68.482   9.447  0.00  0.00    +0.146 HD
ATOM     18  H22 CHE B   05     24.760  70.582  12.431  0.00  0.00    +0.146 HD
ENDBRANCH   5   7
BRANCH   1  23
ATOM     19  C3  CHE B   05     25.298  68.449   7.694  0.00  0.00    +0.042 A 
ATOM     20  C4  CHE B   05     19.303  67.409   8.413  0.00  0.00    +0.023 A 
ATOM     21  C5  CHE B   05     20.058  67.414   7.490  0.00  0.00    +0.004 A 
ATOM     22  C6  CHE B   05     18.363  67.276   8.727  0.00  0.00    +0.030 A 
ATOM     23  C7  CHE B   05     22.475  68.049   8.626  0.00  0.00    +0.090 A 
ATOM     24  N7  CHE B   05     24.523  68.431   8.552  0.00  0.00    -0.250 NA
BRANCH  19  26
ATOM     25  C1  CHE B   05     25.957  60.593   9.055  0.00  0.00    +0.010 C 
ATOM     26  C2  CHE B   05     25.506  68.593   8.379  0.00  0.00    +0.052 C 
ENDBRANCH  19  26
ENDBRANCH   1  23
BRANCH   3  27
ATOM     27  C10 CHE B   05     23.996  66.155  11.779  0.00  0.00    +0.175 C 
BRANCH  27  28
ATOM     28  N2  CHE B   05     19.952  65.741  14.806  0.00  0.00    -0.337 N 
ATOM     29  H12 CHE B   05     22.391  65.898  13.021  0.00  0.00    +0.147 HD
BRANCH  28  30
ATOM     30  C11 CHE B   05     27.604  63.778  10.275  0.00  0.00    +0.028 A 
ATOM     31  C12 CHE B   05     26.293  63.416  11.945  0.00  0.00    +0.024 A 
ATOM     32  C13 CHE B   05     24.372  62.779  14.529  0.00  0.00    +0.020 A 
ATOM     33  C14 CHE B   05     22.984  62.575  16.067  0.00  0.00    +0.052 A 
ATOM     34  C16 CHE B   05     22.714  63.130  15.607  0.00  0.00    +0.020 A 
ATOM     35  C17 CHE B   05     22.246  64.087  14.811  0.00  0.00    +0.024 A 
BRANCH  33  36
ATOM     36  C15 CHE B   05     25.071  61.346  15.719  0.00  0.00    +0.099 C 
ATOM     37  N3  CHE B   05     29.867  60.502  14.112  0.00  0.00    -0.191 NA
ENDBRANCH  33  36
ENDBRANCH  28  30
ENDBRANCH  27  28
ENDBRANCH   3  27
TORSDOF 7
ENDMDL
MODEL 5
REMARK VINA RESULT:      -7.6      2.715      7.669
REMARK  Name = dock_mp/CHEMBL5/CHEMBL567505.pdb
REMARK  8 active torsions:
REMARK  status: ('A' for Active; 'I' for Inactive)
REMARK    1  A    between atoms: C1_1  and  C2_2
REMARK    2  A    between atoms: C2_2  and  C3_3
REMARK    3  A    between atoms: C7_7  and  C8_8
REMARK    4  A    between atoms: C9_10  and  C10_11
REMARK    5  A    between atoms: C10_11  and  N2_12
REMARK    6  A    between atoms: N2_12  and  C11_13
REMARK    7  A    between atoms: C14_16  and  C15_17
REMARK    8  A    between atoms: C18_22  and  C19_23
REMARK                            x       y       z     vdW  Elec       q    Type
REMARK                         _______ _______ _______ _____ _____    ______ ____
ROOT
ATOM      1  C8  CHE B   05     25.502  71.173  11.443  0.00  0.00    +0.093 A 
ATOM      2  N1  CHE B   05     24.554  71.093  10.557  0.00  0.00    -0.339 N 
ATOM      3  C9  CHE B   05     22.627  69.261  12.037  0.00  0.00    +0.125 A 
ATOM      4  N4  CHE B   05     24.379  70.522  11.487  0.00  0.00    -0.230 NA
ATOM      5  C18 CHE B   05     24.173  69.391  13.482  0.00  0.00    +0.098 A 
ATOM      6  H9  CHE B   05     20.509  66.857  14.433  0.00  0.00    +0.167 HD
ENDROOT
BRANCH   5   7
ATOM      7  C19 CHE B   05     21.960  65.865  17.974  0.00  0.00    +0.000 C 
ATOM      8  C20 CHE B   05     23.050  67.131  15.482  0.00  0.00    +0.007 C 
ATOM      9  C21 CHE B   05     24.832  68.148  10.786  0.00  0.00    +0.118 C 
ATOM     10  N5  CHE B   05     22.304  65.696  16.850  0.00  0.00    -0.340 N 
ATOM     11  C22 CHE B   05     23.367  66.120  13.941  0.00  0.00    +0.083 C 
ATOM     12  C23 CHE B   05     24.063  65.997  11.800  0.00  0.00    +0.083 C 
ATOM     13  N6  CHE B   05     24.423  66.329  10.925  0.00  0.00    -0.340 N 
ATOM     14  C24 CHE B   05     23.344  65.412  13.591  0.00  0.00    +0.117 C 
ATOM     15  C25 CHE B   05     21.894  63.823  16.963  0.00  0.00    -0.002 C 
ATOM     16  C26 CHE B   05     22.286  65.123  16.567  0.00  0.00    +0.007 C 
ATOM     17  H19 CHE B   05     24.149  68.639  13.109  0.00  0.00    +0.146 HD
ATOM     18  H22 CHE B   05     24.777  66.464   9.952  0.00  0.00    +0.146 HD
ENDBRANCH   5   7
BRANCH   1  23
ATOM     19  C3  CHE B   05     25.257  70.903  12.658  0.00  0.00    +0.042 A 
ATOM     20  C4  CHE B   05     23.023  67.404  17.164  0.00  0.00    +0.023 A 
ATOM     21  C5  CHE B   05     23.585  68.454  17.105  0.00  0.00    +0.004 A 
ATOM     22  C6  CHE B   05     22.605  66.708  17.748  0.00  0.00    +0.030 A 
ATOM     23  C7  CHE B   05     24.005  68.821  14.418  0.00  0.00    +0.090 A 
ATOM     24  N7  CHE B   05     24.711  69.890  12.773  0.00  0.00    -0.250 NA
BRANCH  19  26
ATOM     25  C1  CHE B   05     30.558  65.396  15.021  0.00  0.00    +0.010 C 
ATOM     26  C2  CHE B   05     25.095  70.504  12.067  0.00  0.00    +0.052 C 
ENDBRANCH  19  26
ENDBRANCH   1  23
BRANCH   3  27
ATOM     27  C10 CHE B   05     21.102  68.577  11.706  0.00  0.00    +0.175 C 
BRANCH  27  28
ATOM     28  N2  CHE B   05     17.173  67.004  14.495  0.00  0.00    -0.337 N 
ATOM     29  H12 CHE B   05     19.457  67.968  12.760  0.00  0.00    +0.147 HD
BRANCH  28  30
ATOM     30  C11 CHE B   05     22.097  70.433   7.645  0.00  0.00    +0.028 A 
ATOM     31  C12 CHE B   05     20.358  69.358   8.322  0.00  0.00    +0.024 A 
ATOM     32  C13 CHE B   05     17.672  67.709   9.238  0.00  0.00    +0.020 A 
ATOM     33  C14 CHE B   05     16.060  66.696  10.082  0.00  0.00    +0.052 A 
ATOM     34  C16 CHE B   05     16.509  66.913  10.669  0.00  0.00    +0.020 A 
ATOM     35  C17 CHE B   05     17.283  67.289  11.683  0.00  0.00    +0.024 A 
BRANCH  33  36
ATOM     36  C15 CHE B   05     16.514  67.147   7.720  0.00  0.00    +0.099 C 
ATOM     37  N3  CHE B   05     19.064  68.898   3.630  0.00  0.00    -0.191 NA
ENDBRANCH  33  36
ENDBRANCH  28  30
ENDBRANCH  27  28
ENDBRANCH   3  27
TORSDOF 7
ENDMDL
MODEL 6
REMARK VINA RESULT:      -7.4      3.359      6.976
REMARK  Name = dock_mp/CHEMBL5/CHEMBL567505.pdb
REMARK  8 active torsions:
REMARK  status: ('A' for Active; 'I' for Inactive)
REMARK    1  A    between atoms: C1_1  and  C2_2
REMARK    2  A    between atoms: C2_2  and  C3_3
REMARK    3  A    between atoms: C7_7  and  C8_8
REMARK    4  A    between atoms: C9_10  and  C10_11
REMARK    5  A    between atoms: C10_11  and  N2_12
REMARK    6  A    between atoms: N2_12  and  C11_13
REMARK    7  A    between atoms: C14_16  and  C15_17
REMARK    8  A    between atoms: C18_22  and  C19_23
REMARK                            x       y       z     vdW  Elec       q    Type
REMARK                         _______ _______ _______ _____ _____    ______ ____
ROOT
ATOM      1  C8  CHE B   05     27.662  63.920   6.224  0.00  0.00    +0.093 A 
ATOM      2  N1  CHE B   05     28.758  64.580   5.995  0.00  0.00    -0.339 N 
ATOM      3  C9  CHE B   05     28.347  66.924   7.892  0.00  0.00    +0.125 A 
ATOM      4  N4  CHE B   05     28.082  65.036   6.740  0.00  0.00    -0.230 NA
ATOM      5  C18 CHE B   05     26.560  65.847   8.266  0.00  0.00    +0.098 A 
ATOM      6  H9  CHE B   05     27.277  69.734  10.530  0.00  0.00    +0.167 HD
ENDROOT
BRANCH   5   7
ATOM      7  C19 CHE B   05     23.843  69.391  12.457  0.00  0.00    +0.000 C 
ATOM      8  C20 CHE B   05     25.112  68.084  10.073  0.00  0.00    +0.007 C 
ATOM      9  C21 CHE B   05     27.031  66.930   5.464  0.00  0.00    +0.118 C 
ATOM     10  N5  CHE B   05     24.159  69.509  11.319  0.00  0.00    -0.340 N 
ATOM     11  C22 CHE B   05     25.277  68.990   8.446  0.00  0.00    +0.083 C 
ATOM     12  C23 CHE B   05     25.949  69.025   6.294  0.00  0.00    +0.083 C 
ATOM     13  N6  CHE B   05     26.356  68.673   5.447  0.00  0.00    -0.340 N 
ATOM     14  C24 CHE B   05     25.149  69.653   8.035  0.00  0.00    +0.117 C 
ATOM     15  C25 CHE B   05     23.475  71.303  11.271  0.00  0.00    -0.002 C 
ATOM     16  C26 CHE B   05     24.056  70.045  10.986  0.00  0.00    +0.007 C 
ATOM     17  H19 CHE B   05     26.425  66.551   7.829  0.00  0.00    +0.146 HD
ATOM     18  H22 CHE B   05     26.727  68.506   4.486  0.00  0.00    +0.146 HD
ENDBRANCH   5   7
BRANCH   1  23
ATOM     19  C3  CHE B   05     27.055  64.120   7.320  0.00  0.00    +0.042 A 
ATOM     20  C4  CHE B   05     24.360  67.650  11.541  0.00  0.00    +0.023 A 
ATOM     21  C5  CHE B   05     24.573  66.483  11.422  0.00  0.00    +0.004 A 
ATOM     22  C6  CHE B   05     23.968  68.378  12.103  0.00  0.00    +0.030 A 
ATOM     23  C7  CHE B   05     25.876  66.298   9.013  0.00  0.00    +0.090 A 
ATOM     24  N7  CHE B   05     26.823  65.241   7.486  0.00  0.00    -0.250 NA
BRANCH  19  26
ATOM     25  C1  CHE B   05     20.957  68.777   9.587  0.00  0.00    +0.010 C 
ATOM     26  C2  CHE B   05     27.256  64.614   6.821  0.00  0.00    +0.052 C 
ENDBRANCH  19  26
ENDBRANCH   1  23
BRANCH   3  27
ATOM     27  C10 CHE B   05     29.231  68.320   8.310  0.00  0.00    +0.175 C 
BRANCH  27  28
ATOM     28  N2  CHE B   05     28.160  73.249   8.810  0.00  0.00    -0.337 N 
ATOM     29  H12 CHE B   05     28.775  70.293   8.604  0.00  0.00    +0.147 HD
BRANCH  28  30
ATOM     30  C11 CHE B   05     29.292  64.409  10.682  0.00  0.00    +0.028 A 
ATOM     31  C12 CHE B   05     28.660  66.371  11.308  0.00  0.00    +0.024 A 
ATOM     32  C13 CHE B   05     27.668  69.314  12.368  0.00  0.00    +0.020 A 
ATOM     33  C14 CHE B   05     27.111  71.276  12.787  0.00  0.00    +0.052 A 
ATOM     34  C16 CHE B   05     27.375  71.278  12.064  0.00  0.00    +0.020 A 
ATOM     35  C17 CHE B   05     27.831  71.281  10.815  0.00  0.00    +0.024 A 
BRANCH  33  36
ATOM     36  C15 CHE B   05     26.985  69.309  14.238  0.00  0.00    +0.099 C 
ATOM     37  N3  CHE B   05     25.297  64.780  15.952  0.00  0.00    -0.191 NA
ENDBRANCH  33  36
ENDBRANCH  28  30
ENDBRANCH  27  28
ENDBRANCH   3  27
TORSDOF 7
ENDMDL
MODEL 7
REMARK VINA RESULT:      -7.2      1.651      2.409
REMARK  Name = dock_mp/CHEMBL5/CHEMBL567505.pdb
REMARK  8 active torsions:
REMARK  status: ('A' for Active; 'I' for Inactive)
REMARK    1  A    between atoms: C1_1  and  C2_2
REMARK    2  A    between atoms: C2_2  and  C3_3
REMARK    3  A    between atoms: C7_7  and  C8_8
REMARK    4  A    between atoms: C9_10  and  C10_11
REMARK    5  A    between atoms: C10_11  and  N2_12
REMARK    6  A    between atoms: N2_12  and  C11_13
REMARK    7  A    between atoms: C14_16  and  C15_17
REMARK    8  A    between atoms: C18_22  and  C19_23
REMARK                            x       y       z     vdW  Elec       q    Type
REMARK                         _______ _______ _______ _____ _____    ______ ____
ROOT
ATOM      1  C8  CHE B   05     24.236  71.693  10.470  0.00  0.00    +0.093 A 
ATOM      2  N1  CHE B   05     25.127  70.765  10.281  0.00  0.00    -0.339 N 
ATOM      3  C9  CHE B   05     23.333  68.308  10.385  0.00  0.00    +0.125 A 
ATOM      4  N4  CHE B   05     24.090  70.403  10.409  0.00  0.00    -0.230 NA
ATOM      5  C18 CHE B   05     21.881  69.822  10.693  0.00  0.00    +0.098 A 
ATOM      6  H9  CHE B   05     20.518  65.476  10.613  0.00  0.00    +0.167 HD
ENDROOT
BRANCH   5   7
ATOM      7  C19 CHE B   05     16.753  66.516  11.226  0.00  0.00    +0.000 C 
ATOM      8  C20 CHE B   05     19.239  68.000  10.437  0.00  0.00    +0.007 C 
ATOM      9  C21 CHE B   05     23.209  70.101   7.972  0.00  0.00    +0.118 C 
ATOM     10  N5  CHE B   05     17.488  66.809  10.342  0.00  0.00    -0.340 N 
ATOM     11  C22 CHE B   05     19.841  68.006   8.667  0.00  0.00    +0.083 C 
ATOM     12  C23 CHE B   05     21.346  68.666   7.123  0.00  0.00    +0.083 C 
ATOM     13  N6  CHE B   05     22.160  69.130   6.766  0.00  0.00    -0.340 N 
ATOM     14  C24 CHE B   05     19.730  67.765   7.923  0.00  0.00    +0.117 C 
ATOM     15  C25 CHE B   05     16.431  65.820   9.079  0.00  0.00    -0.002 C 
ATOM     16  C26 CHE B   05     17.398  66.614   9.739  0.00  0.00    +0.007 C 
ATOM     17  H19 CHE B   05     21.762  69.566   9.901  0.00  0.00    +0.146 HD
ATOM     18  H22 CHE B   05     22.943  69.527   6.201  0.00  0.00    +0.146 HD
ENDBRANCH   5   7
BRANCH   1  23
ATOM     19  C3  CHE B   05     23.150  71.367  11.037  0.00  0.00    +0.042 A 
ATOM     20  C4  CHE B   05     18.030  68.050  11.610  0.00  0.00    +0.023 A 
ATOM     21  C5  CHE B   05     18.535  68.942  12.220  0.00  0.00    +0.004 A 
ATOM     22  C6  CHE B   05     17.261  67.416  11.535  0.00  0.00    +0.030 A 
ATOM     23  C7  CHE B   05     20.838  69.467  10.821  0.00  0.00    +0.090 A 
ATOM     24  N7  CHE B   05     22.616  70.503  10.485  0.00  0.00    -0.250 NA
BRANCH  19  26
ATOM     25  C1  CHE B   05     15.826  69.494   8.418  0.00  0.00    +0.010 C 
ATOM     26  C2  CHE B   05     23.447  71.078  10.436  0.00  0.00    +0.052 C 
ENDBRANCH  19  26
ENDBRANCH   1  23
BRANCH   3  27
ATOM     27  C10 CHE B   05     23.564  66.626  10.244  0.00  0.00    +0.175 C 
BRANCH  27  28
ATOM     28  N2  CHE B   05     26.248  63.598   7.191  0.00  0.00    -0.337 N 
ATOM     29  H12 CHE B   05     24.725  65.420   9.068  0.00  0.00    +0.147 HD
BRANCH  28  30
ATOM     30  C11 CHE B   05     23.977  69.194  14.007  0.00  0.00    +0.028 A 
ATOM     31  C12 CHE B   05     25.179  67.568  13.265  0.00  0.00    +0.024 A 
ATOM     32  C13 CHE B   05     27.064  65.084  12.243  0.00  0.00    +0.020 A 
ATOM     33  C14 CHE B   05     28.128  63.534  11.348  0.00  0.00    +0.052 A 
ATOM     34  C16 CHE B   05     27.644  63.800  10.811  0.00  0.00    +0.020 A 
ATOM     35  C17 CHE B   05     26.807  64.258   9.884  0.00  0.00    +0.024 A 
BRANCH  33  36
ATOM     36  C15 CHE B   05     28.316  64.398  13.629  0.00  0.00    +0.099 C 
ATOM     37  N3  CHE B   05     26.903  66.861  17.900  0.00  0.00    -0.191 NA
ENDBRANCH  33  36
ENDBRANCH  28  30
ENDBRANCH  27  28
ENDBRANCH   3  27
TORSDOF 7
ENDMDL
MODEL 8
REMARK VINA RESULT:      -7.1      3.326      7.759
REMARK  Name = dock_mp/CHEMBL5/CHEMBL567505.pdb
REMARK  8 active torsions:
REMARK  status: ('A' for Active; 'I' for Inactive)
REMARK    1  A    between atoms: C1_1  and  C2_2
REMARK    2  A    between atoms: C2_2  and  C3_3
REMARK    3  A    between atoms: C7_7  and  C8_8
REMARK    4  A    between atoms: C9_10  and  C10_11
REMARK    5  A    between atoms: C10_11  and  N2_12
REMARK    6  A    between atoms: N2_12  and  C11_13
REMARK    7  A    between atoms: C14_16  and  C15_17
REMARK    8  A    between atoms: C18_22  and  C19_23
REMARK                            x       y       z     vdW  Elec       q    Type
REMARK                         _______ _______ _______ _____ _____    ______ ____
ROOT
ATOM      1  C8  CHE B   05     21.357  70.651  10.228  0.00  0.00    +0.093 A 
ATOM      2  N1  CHE B   05     21.262  69.369  10.034  0.00  0.00    -0.339 N 
ATOM      3  C9  CHE B   05     23.952  68.482  11.146  0.00  0.00    +0.125 A 
ATOM      4  N4  CHE B   05     22.206  69.705  10.500  0.00  0.00    -0.230 NA
ATOM      5  C18 CHE B   05     24.108  70.573  11.463  0.00  0.00    +0.098 A 
ATOM      6  H9  CHE B   05     27.584  67.911  12.721  0.00  0.00    +0.167 HD
ENDROOT
BRANCH   5   7
ATOM      7  C19 CHE B   05     29.654  71.017  14.025  0.00  0.00    +0.000 C 
ATOM      8  C20 CHE B   05     26.812  70.502  13.210  0.00  0.00    +0.007 C 
ATOM      9  C21 CHE B   05     21.925  69.000  12.878  0.00  0.00    +0.118 C 
ATOM     10  N5  CHE B   05     28.625  70.497  14.308  0.00  0.00    -0.340 N 
ATOM     11  C22 CHE B   05     25.666  69.486  14.283  0.00  0.00    +0.083 C 
ATOM     12  C23 CHE B   05     23.638  68.573  14.648  0.00  0.00    +0.083 C 
ATOM     13  N6  CHE B   05     22.678  68.348  14.461  0.00  0.00    -0.340 N 
ATOM     14  C24 CHE B   05     25.568  69.069  14.947  0.00  0.00    +0.117 C 
ATOM     15  C25 CHE B   05     29.371  69.814  15.940  0.00  0.00    -0.002 C 
ATOM     16  C26 CHE B   05     28.545  70.160  14.846  0.00  0.00    +0.007 C 
ATOM     17  H19 CHE B   05     24.004  70.129  12.169  0.00  0.00    +0.146 HD
ATOM     18  H22 CHE B   05     21.691  68.007  14.458  0.00  0.00    +0.146 HD
ENDBRANCH   5   7
BRANCH   1  23
ATOM     19  C3  CHE B   05     22.533  71.120  10.316  0.00  0.00    +0.042 A 
ATOM     20  C4  CHE B   05     28.099  71.558  12.838  0.00  0.00    +0.023 A 
ATOM     21  C5  CHE B   05     27.541  72.076  11.920  0.00  0.00    +0.004 A 
ATOM     22  C6  CHE B   05     28.937  71.489  13.379  0.00  0.00    +0.030 A 
ATOM     23  C7  CHE B   05     25.052  70.918  11.931  0.00  0.00    +0.090 A 
ATOM     24  N7  CHE B   05     23.121  70.650  11.193  0.00  0.00    -0.250 NA
BRANCH  19  26
ATOM     25  C1  CHE B   05     27.298  73.332  16.349  0.00  0.00    +0.010 C 
ATOM     26  C2  CHE B   05     22.218  70.616  10.740  0.00  0.00    +0.052 C 
ENDBRANCH  19  26
ENDBRANCH   1  23
BRANCH   3  27
ATOM     27  C10 CHE B   05     24.760  66.994  11.335  0.00  0.00    +0.175 C 
BRANCH  27  28
ATOM     28  N2  CHE B   05     28.341  65.204  14.444  0.00  0.00    -0.337 N 
ATOM     29  H12 CHE B   05     26.272  66.310  12.531  0.00  0.00    +0.147 HD
BRANCH  28  30
ATOM     30  C11 CHE B   05     24.240  69.369   7.460  0.00  0.00    +0.028 A 
ATOM     31  C12 CHE B   05     25.990  69.089   8.684  0.00  0.00    +0.024 A 
ATOM     32  C13 CHE B   05     28.715  68.746  10.481  0.00  0.00    +0.020 A 
ATOM     33  C14 CHE B   05     30.299  68.339  11.770  0.00  0.00    +0.052 A 
ATOM     34  C16 CHE B   05     29.716  67.890  11.998  0.00  0.00    +0.020 A 
ATOM     35  C17 CHE B   05     28.709  67.115  12.391  0.00  0.00    +0.024 A 
BRANCH  33  36
ATOM     36  C15 CHE B   05     30.221  69.906   9.892  0.00  0.00    +0.099 C 
ATOM     37  N3  CHE B   05     31.494  71.952   5.365  0.00  0.00    -0.191 NA
ENDBRANCH  33  36
ENDBRANCH  28  30
ENDBRANCH  27  28
ENDBRANCH   3  27
TORSDOF 7
ENDMDL
MODEL 9
REMARK VINA RESULT:      -7.0      2.920      5.976
REMARK  Name = dock_mp/CHEMBL5/CHEMBL567505.pdb
REMARK  8 active torsions:
REMARK  status: ('A' for Active; 'I' for Inactive)
REMARK    1  A    between atoms: C1_1  and  C2_2
REMARK    2  A    between atoms: C2_2  and  C3_3
REMARK    3  A    between atoms: C7_7  and  C8_8
REMARK    4  A    between atoms: C9_10  and  C10_11
REMARK    5  A    between atoms: C10_11  and  N2_12
REMARK    6  A    between atoms: N2_12  and  C11_13
REMARK    7  A    between atoms: C14_16  and  C15_17
REMARK    8  A    between atoms: C18_22  and  C19_23
REMARK                            x       y       z     vdW  Elec       q    Type
REMARK                         _______ _______ _______ _____ _____    ______ ____
ROOT
ATOM      1  C8  CHE B   05     21.415  70.293   9.751  0.00  0.00    +0.093 A 
ATOM      2  N1  CHE B   05     22.615  70.791   9.728  0.00  0.00    -0.339 N 
ATOM      3  C9  CHE B   05     23.708  69.610  12.311  0.00  0.00    +0.125 A 
ATOM      4  N4  CHE B   05     22.389  70.152  10.601  0.00  0.00    -0.230 NA
ATOM      5  C18 CHE B   05     21.750  68.798  12.349  0.00  0.00    +0.098 A 
ATOM      6  H9  CHE B   05     24.593  67.798  15.766  0.00  0.00    +0.167 HD
ENDROOT
BRANCH   5   7
ATOM      7  C19 CHE B   05     21.858  65.573  17.555  0.00  0.00    +0.000 C 
ATOM      8  C20 CHE B   05     22.178  66.793  14.832  0.00  0.00    +0.007 C 
ATOM      9  C21 CHE B   05     23.533  67.963  10.031  0.00  0.00    +0.118 C 
ATOM     10  N5  CHE B   05     22.409  65.513  16.505  0.00  0.00    -0.340 N 
ATOM     11  C22 CHE B   05     23.362  66.068  13.580  0.00  0.00    +0.083 C 
ATOM     12  C23 CHE B   05     24.303  66.118  11.532  0.00  0.00    +0.083 C 
ATOM     13  N6  CHE B   05     24.477  66.454  10.603  0.00  0.00    -0.340 N 
ATOM     14  C24 CHE B   05     23.894  65.510  13.409  0.00  0.00    +0.117 C 
ATOM     15  C25 CHE B   05     23.394  63.961  17.064  0.00  0.00    -0.002 C 
ATOM     16  C26 CHE B   05     22.840  65.061  16.367  0.00  0.00    +0.007 C 
ATOM     17  H19 CHE B   05     22.316  68.204  12.168  0.00  0.00    +0.146 HD
ATOM     18  H22 CHE B   05     24.799  66.634   9.626  0.00  0.00    +0.146 HD
ENDBRANCH   5   7
BRANCH   1  23
ATOM     19  C3  CHE B   05     20.921  69.890  10.848  0.00  0.00    +0.042 A 
ATOM     20  C4  CHE B   05     21.021  66.696  16.075  0.00  0.00    +0.023 A 
ATOM     21  C5  CHE B   05     20.241  67.422  15.540  0.00  0.00    +0.004 A 
ATOM     22  C6  CHE B   05     21.222  66.116  16.865  0.00  0.00    +0.030 A 
ATOM     23  C7  CHE B   05     21.515  68.155  13.222  0.00  0.00    +0.090 A 
ATOM     24  N7  CHE B   05     21.639  69.180  11.410  0.00  0.00    -0.250 NA
BRANCH  19  26
ATOM     25  C1  CHE B   05     17.322  68.046   3.944  0.00  0.00    +0.010 C 
ATOM     26  C2  CHE B   05     21.571  69.725  10.561  0.00  0.00    +0.052 C 
ENDBRANCH  19  26
ENDBRANCH   1  23
BRANCH   3  27
ATOM     27  C10 CHE B   05     25.190  69.680  13.150  0.00  0.00    +0.175 C 
BRANCH  27  28
ATOM     28  N2  CHE B   05     26.840  68.141  17.688  0.00  0.00    -0.337 N 
ATOM     29  H12 CHE B   05     25.945  69.054  14.945  0.00  0.00    +0.147 HD
BRANCH  28  30
ATOM     30  C11 CHE B   05     26.672  70.593   8.919  0.00  0.00    +0.028 A 
ATOM     31  C12 CHE B   05     26.986  69.075  10.415  0.00  0.00    +0.024 A 
ATOM     32  C13 CHE B   05     27.488  66.683  12.604  0.00  0.00    +0.020 A 
ATOM     33  C14 CHE B   05     27.747  65.357  14.190  0.00  0.00    +0.052 A 
ATOM     34  C16 CHE B   05     27.555  66.033  14.504  0.00  0.00    +0.020 A 
ATOM     35  C17 CHE B   05     27.224  67.201  15.048  0.00  0.00    +0.024 A 
BRANCH  33  36
ATOM     36  C15 CHE B   05     27.984  64.936  11.791  0.00  0.00    +0.099 C 
ATOM     37  N3  CHE B   05     26.654  64.829   6.839  0.00  0.00    -0.191 NA
ENDBRANCH  33  36
ENDBRANCH  28  30
ENDBRANCH  27  28
ENDBRANCH   3  27
TORSDOF 7
ENDMDL
MODEL 10
REMARK VINA RESULT:      -7.0      4.305      9.844
REMARK  Name = dock_mp/CHEMBL5/CHEMBL567505.pdb
REMARK  8 active torsions:
REMARK  status: ('A' for Active; 'I' for Inactive)
REMARK    1  A    between atoms: C1_1  and  C2_2
REMARK    2  A    between atoms: C2_2  and  C3_3
REMARK    3  A    between atoms: C7_7  and  C8_8
REMARK    4  A    between atoms: C9_10  and  C10_11
REMARK    5  A    between atoms: C10_11  and  N2_12
REMARK    6  A    between atoms: N2_12  and  C11_13
REMARK    7  A    between atoms: C14_16  and  C15_17
REMARK    8  A    between atoms: C18_22  and  C19_23
REMARK                            x       y       z     vdW  Elec       q    Type
REMARK                         _______ _______ _______ _____ _____    ______ ____
ROOT
ATOM      1  C8  CHE B   05     24.704  66.126  11.393  0.00  0.00    +0.093 A 
ATOM      2  N1  CHE B   05     23.590  66.657  10.983  0.00  0.00    -0.339 N 
ATOM      3  C9  CHE B   05     24.651  68.382   8.712  0.00  0.00    +0.125 A 
ATOM      4  N4  CHE B   05     24.492  66.970  10.428  0.00  0.00    -0.230 NA
ATOM      5  C18 CHE B   05     26.467  67.517   9.380  0.00  0.00    +0.098 A 
ATOM      6  H9  CHE B   05     26.597  70.429   5.879  0.00  0.00    +0.167 HD
ENDROOT
BRANCH   5   7
ATOM      7  C19 CHE B   05     30.518  70.049   5.546  0.00  0.00    +0.000 C 
ATOM      8  C20 CHE B   05     28.461  69.318   7.605  0.00  0.00    +0.007 C 
ATOM      9  C21 CHE B   05     24.964  69.278  11.350  0.00  0.00    +0.118 C 
ATOM     10  N5  CHE B   05     29.794  70.442   6.402  0.00  0.00    -0.340 N 
ATOM     11  C22 CHE B   05     27.684  70.619   8.702  0.00  0.00    +0.083 C 
ATOM     12  C23 CHE B   05     26.252  71.174  10.351  0.00  0.00    +0.083 C 
ATOM     13  N6  CHE B   05     25.560  71.027  11.063  0.00  0.00    -0.340 N 
ATOM     14  C24 CHE B   05     27.639  71.381   8.904  0.00  0.00    +0.117 C 
ATOM     15  C25 CHE B   05     30.388  72.249   6.131  0.00  0.00    -0.002 C 
ATOM     16  C26 CHE B   05     29.758  71.060   6.566  0.00  0.00    +0.007 C 
ATOM     17  H19 CHE B   05     26.420  68.327   9.595  0.00  0.00    +0.146 HD
ATOM     18  H22 CHE B   05     24.857  71.092  11.832  0.00  0.00    +0.146 HD
ENDBRANCH   5   7
BRANCH   1  23
ATOM     19  C3  CHE B   05     25.677  66.085  10.580  0.00  0.00    +0.042 A 
ATOM     20  C4  CHE B   05     29.717  68.592   6.716  0.00  0.00    +0.023 A 
ATOM     21  C5  CHE B   05     29.492  67.488   7.109  0.00  0.00    +0.004 A 
ATOM     22  C6  CHE B   05     30.283  69.175   6.133  0.00  0.00    +0.030 A 
ATOM     23  C7  CHE B   05     27.378  67.827   8.827  0.00  0.00    +0.090 A 
ATOM     24  N7  CHE B   05     25.939  67.133  10.167  0.00  0.00    -0.250 NA
BRANCH  19  26
ATOM     25  C1  CHE B   05     27.387  69.652   3.626  0.00  0.00    +0.010 C 
ATOM     26  C2  CHE B   05     25.295  66.669  10.795  0.00  0.00    +0.052 C 
ENDBRANCH  19  26
ENDBRANCH   1  23
BRANCH   3  27
ATOM     27  C10 CHE B   05     23.967  69.450   7.574  0.00  0.00    +0.175 C 
BRANCH  27  28
ATOM     28  N2  CHE B   05     23.795  69.702   2.514  0.00  0.00    -0.337 N 
ATOM     29  H12 CHE B   05     23.802  69.561   5.538  0.00  0.00    +0.147 HD
BRANCH  28  30
ATOM     30  C11 CHE B   05     21.262  69.566  11.260  0.00  0.00    +0.028 A 
ATOM     31  C12 CHE B   05     20.743  69.397   9.177  0.00  0.00    +0.024 A 
ATOM     32  C13 CHE B   05     19.838  69.120   6.034  0.00  0.00    +0.020 A 
ATOM     33  C14 CHE B   05     19.534  68.990   3.979  0.00  0.00    +0.052 A 
ATOM     34  C16 CHE B   05     20.285  69.129   4.076  0.00  0.00    +0.020 A 
ATOM     35  C17 CHE B   05     21.582  69.368   4.244  0.00  0.00    +0.024 A 
BRANCH  33  36
ATOM     36  C15 CHE B   05     17.896  68.762   5.783  0.00  0.00    +0.099 C 
ATOM     37  N3  CHE B   05     14.084  66.657   8.491  0.00  0.00    -0.191 NA
ENDBRANCH  33  36
ENDBRANCH  28  30
ENDBRANCH  27  28
ENDBRANCH   3  27
TORSDOF 7
ENDMDL
