MODEL 1
REMARK VINA RESULT:     -11.2      0.000      0.000
REMARK  Name = dock_mp/CHEMBL5/CHEMBL519939.pdb
REMARK  4 active torsions:
REMARK  status: ('A' for Active; 'I' for Inactive)
REMARK    1  A    between atoms: C1_1  and  C2_2
REMARK    2  A    between atoms: C4_7  and  C5_8
REMARK    3  A    between atoms: C9_13  and  C10_14
REMARK    4  A    between atoms: C11_16  and  C12_17
REMARK                            x       y       z     vdW  Elec       q    Type
REMARK                         _______ _______ _______ _____ _____    ______ ____
ROOT
ATOM      1  C1  CHE B   09     15.689  68.466   2.729  0.00  0.00    +0.109 C 
ATOM      2  C2  CHE B   09     16.633  68.640   3.102  0.00  0.00    +0.216 C 
ATOM      3  O1  CHE B   09     17.280  68.737   4.429  0.00  0.00    -0.276 OA
ATOM      4  N1  CHE B   09     15.384  68.339   5.821  0.00  0.00    -0.256 N 
ATOM      5  C3  CHE B   09     17.746  68.870   2.471  0.00  0.00    +0.200 A 
ATOM      6  N2  CHE B   09     18.034  68.946   1.514  0.00  0.00    -0.212 NA
ATOM      7  C4  CHE B   09     16.614  68.520   8.449  0.00  0.00    +0.117 A 
ATOM      8  C11 CHE B   09     17.338  68.654   8.736  0.00  0.00    +0.077 A 
ATOM      9  N6  CHE B   09     18.493  68.985   3.838  0.00  0.00    -0.325 N 
ATOM     10  H4  CHE B   09     16.329  68.631   0.840  0.00  0.00    +0.158 HD
ATOM     11  H15 CHE B   09     19.852  69.306   1.162  0.00  0.00    +0.169 HD
ENDROOT
BRANCH   8  12
ATOM     12  C12 CHE B   09     21.374  69.588   1.764  0.00  0.00    +0.003 A 
ATOM     13  C13 CHE B   09     21.962  69.949   3.089  0.00  0.00    +0.012 A 
ATOM     14  C14 CHE B   09     21.904  70.234   6.307  0.00  0.00    +0.030 A 
ATOM     15  C15 CHE B   09     22.403  70.349   5.433  0.00  0.00    +0.089 A 
ATOM     16  N4  CHE B   09     21.637  70.533  10.519  0.00  0.00    -0.252 NA
ATOM     17  C16 CHE B   09     22.102  70.632   9.631  0.00  0.00    +0.131 A 
ATOM     18  C17 CHE B   09     21.151  70.217   9.237  0.00  0.00    +0.131 A 
ATOM     19  N5  CHE B   09     20.469  69.815   7.873  0.00  0.00    -0.252 NA
ATOM     20  C18 CHE B   09     22.530  70.093   2.244  0.00  0.00    +0.090 A 
ATOM     21  C19 CHE B   09     21.494  69.640   1.814  0.00  0.00    +0.040 A 
ENDBRANCH   8  12
BRANCH   7  22
ATOM     22  C5  CHE B   09     19.390  69.197   2.051  0.00  0.00    +0.092 A 
ATOM     23  C6  CHE B   09     16.354  68.709   8.375  0.00  0.00    +0.033 A 
ATOM     24  C7  CHE B   09     18.733  69.291   2.889  0.00  0.00    +0.042 A 
ATOM     25  C8  CHE B   09     18.451  68.336   5.894  0.00  0.00    +0.144 A 
ATOM     26  F1  CHE B   09     19.046  68.288   5.037  0.00  0.00    -0.204 F 
ATOM     27  C9  CHE B   09     19.695  68.200   4.196  0.00  0.00    +0.074 A 
ATOM     28  C10 CHE B   09     19.819  67.335   6.289  0.00  0.00    +0.068 C 
ATOM     29  N3  CHE B   09     17.635  67.772   8.744  0.00  0.00    -0.247 NA
ENDBRANCH   7  22
TORSDOF 2
ENDMDL
MODEL 2
REMARK VINA RESULT:     -10.8      2.494      5.660
REMARK  Name = dock_mp/CHEMBL5/CHEMBL519939.pdb
REMARK  4 active torsions:
REMARK  status: ('A' for Active; 'I' for Inactive)
REMARK    1  A    between atoms: C1_1  and  C2_2
REMARK    2  A    between atoms: C4_7  and  C5_8
REMARK    3  A    between atoms: C9_13  and  C10_14
REMARK    4  A    between atoms: C11_16  and  C12_17
REMARK                            x       y       z     vdW  Elec       q    Type
REMARK                         _______ _______ _______ _____ _____    ______ ____
ROOT
ATOM      1  C1  CHE B   09     21.144  68.745   8.235  0.00  0.00    +0.109 C 
ATOM      2  C2  CHE B   09     20.377  68.638   7.555  0.00  0.00    +0.216 C 
ATOM      3  O1  CHE B   09     19.011  68.071   7.533  0.00  0.00    -0.276 OA
ATOM      4  N1  CHE B   09     18.867  67.303   9.787  0.00  0.00    -0.256 N 
ATOM      5  C3  CHE B   09     20.316  69.003   6.309  0.00  0.00    +0.200 A 
ATOM      6  N2  CHE B   09     20.923  69.463   5.658  0.00  0.00    -0.212 NA
ATOM      7  C4  CHE B   09     16.186  66.177   9.789  0.00  0.00    +0.117 A 
ATOM      8  C11 CHE B   09     15.599  66.095   9.268  0.00  0.00    +0.077 A 
ATOM      9  N6  CHE B   09     18.867  68.425   6.215  0.00  0.00    -0.325 N 
ATOM     10  H4  CHE B   09     22.307  69.657   6.885  0.00  0.00    +0.158 HD
ATOM     11  H15 CHE B   09     20.288  69.747   3.904  0.00  0.00    +0.169 HD
ENDROOT
BRANCH   8  12
ATOM     12  C12 CHE B   09     19.054  69.573   2.808  0.00  0.00    +0.003 A 
ATOM     13  C13 CHE B   09     17.863  68.678   2.699  0.00  0.00    +0.012 A 
ATOM     14  C14 CHE B   09     15.557  66.760   3.901  0.00  0.00    +0.030 A 
ATOM     15  C15 CHE B   09     15.992  67.197   3.098  0.00  0.00    +0.089 A 
ATOM     16  N4  CHE B   09     12.613  64.283   5.662  0.00  0.00    -0.252 NA
ATOM     17  C16 CHE B   09     13.073  64.734   4.888  0.00  0.00    +0.131 A 
ATOM     18  C17 CHE B   09     13.733  65.135   5.685  0.00  0.00    +0.131 A 
ATOM     19  N5  CHE B   09     14.989  66.070   5.873  0.00  0.00    -0.252 NA
ATOM     20  C18 CHE B   09     18.251  69.086   1.838  0.00  0.00    +0.090 A 
ATOM     21  C19 CHE B   09     18.970  69.523   2.707  0.00  0.00    +0.040 A 
ENDBRANCH   8  12
BRANCH   7  22
ATOM     22  C5  CHE B   09     19.822  69.308   4.681  0.00  0.00    +0.092 A 
ATOM     23  C6  CHE B   09     16.451  66.013   9.899  0.00  0.00    +0.033 A 
ATOM     24  C7  CHE B   09     19.568  68.695   5.520  0.00  0.00    +0.042 A 
ATOM     25  C8  CHE B   09     17.084  67.930   7.327  0.00  0.00    +0.144 A 
ATOM     26  F1  CHE B   09     17.402  68.502   6.514  0.00  0.00    -0.204 F 
ATOM     27  C9  CHE B   09     17.664  69.110   5.678  0.00  0.00    +0.074 A 
ATOM     28  C10 CHE B   09     15.691  68.797   6.751  0.00  0.00    +0.068 C 
ATOM     29  N3  CHE B   09     15.145  66.825   9.359  0.00  0.00    -0.247 NA
ENDBRANCH   7  22
TORSDOF 2
ENDMDL
MODEL 3
REMARK VINA RESULT:     -10.8      2.084      5.114
REMARK  Name = dock_mp/CHEMBL5/CHEMBL519939.pdb
REMARK  4 active torsions:
REMARK  status: ('A' for Active; 'I' for Inactive)
REMARK    1  A    between atoms: C1_1  and  C2_2
REMARK    2  A    between atoms: C4_7  and  C5_8
REMARK    3  A    between atoms: C9_13  and  C10_14
REMARK    4  A    between atoms: C11_16  and  C12_17
REMARK                            x       y       z     vdW  Elec       q    Type
REMARK                         _______ _______ _______ _____ _____    ______ ____
ROOT
ATOM      1  C1  CHE B   09     17.664  68.497   1.926  0.00  0.00    +0.109 C 
ATOM      2  C2  CHE B   09     17.712  68.381   2.948  0.00  0.00    +0.216 C 
ATOM      3  O1  CHE B   09     18.672  68.678   4.034  0.00  0.00    -0.276 OA
ATOM      4  N1  CHE B   09     20.426  69.662   2.751  0.00  0.00    -0.256 N 
ATOM      5  C3  CHE B   09     16.844  67.869   3.768  0.00  0.00    +0.200 A 
ATOM      6  N2  CHE B   09     15.932  67.458   3.695  0.00  0.00    -0.212 NA
ATOM      7  C4  CHE B   09     22.342  70.263   4.854  0.00  0.00    +0.117 A 
ATOM      8  C11 CHE B   09     22.380  70.175   5.638  0.00  0.00    +0.077 A 
ATOM      9  N6  CHE B   09     17.809  68.154   4.963  0.00  0.00    -0.325 N 
ATOM     10  H4  CHE B   09     15.844  67.667   1.848  0.00  0.00    +0.158 HD
ATOM     11  H15 CHE B   09     15.100  66.860   5.279  0.00  0.00    +0.169 HD
ENDROOT
BRANCH   8  12
ATOM     12  C12 CHE B   09     15.179  66.674   6.926  0.00  0.00    +0.003 A 
ATOM     13  C13 CHE B   09     16.316  66.552   7.888  0.00  0.00    +0.012 A 
ATOM     14  C14 CHE B   09     19.332  67.121   8.899  0.00  0.00    +0.030 A 
ATOM     15  C15 CHE B   09     18.431  66.686   9.054  0.00  0.00    +0.089 A 
ATOM     16  N4  CHE B   09     23.312  67.975  10.053  0.00  0.00    -0.252 NA
ATOM     17  C16 CHE B   09     22.404  67.558  10.173  0.00  0.00    +0.131 A 
ATOM     18  C17 CHE B   09     22.197  68.044   9.197  0.00  0.00    +0.131 A 
ATOM     19  N5  CHE B   09     21.040  68.214   8.139  0.00  0.00    -0.252 NA
ATOM     20  C18 CHE B   09     15.430  66.082   8.114  0.00  0.00    +0.090 A 
ATOM     21  C19 CHE B   09     15.205  66.613   7.050  0.00  0.00    +0.040 A 
ENDBRANCH   8  12
BRANCH   7  22
ATOM     22  C5  CHE B   09     16.003  67.292   5.164  0.00  0.00    +0.092 A 
ATOM     23  C6  CHE B   09     22.419  70.109   4.572  0.00  0.00    +0.033 A 
ATOM     24  C7  CHE B   09     16.985  67.562   4.837  0.00  0.00    +0.042 A 
ATOM     25  C8  CHE B   09     19.435  69.376   5.689  0.00  0.00    +0.144 A 
ATOM     26  F1  CHE B   09     18.471  69.070   5.948  0.00  0.00    -0.204 F 
ATOM     27  C9  CHE B   09     17.491  68.796   6.266  0.00  0.00    +0.074 A 
ATOM     28  C10 CHE B   09     19.032  70.191   7.173  0.00  0.00    +0.068 C 
ATOM     29  N3  CHE B   09     22.042  70.872   5.962  0.00  0.00    -0.247 NA
ENDBRANCH   7  22
TORSDOF 2
ENDMDL
MODEL 4
REMARK VINA RESULT:     -10.8      2.178      3.239
REMARK  Name = dock_mp/CHEMBL5/CHEMBL519939.pdb
REMARK  4 active torsions:
REMARK  status: ('A' for Active; 'I' for Inactive)
REMARK    1  A    between atoms: C1_1  and  C2_2
REMARK    2  A    between atoms: C4_7  and  C5_8
REMARK    3  A    between atoms: C9_13  and  C10_14
REMARK    4  A    between atoms: C11_16  and  C12_17
REMARK                            x       y       z     vdW  Elec       q    Type
REMARK                         _______ _______ _______ _____ _____    ______ ____
ROOT
ATOM      1  C1  CHE B   09     14.691  65.105   6.133  0.00  0.00    +0.109 C 
ATOM      2  C2  CHE B   09     15.363  65.881   6.045  0.00  0.00    +0.216 C 
ATOM      3  O1  CHE B   09     16.223  66.684   6.941  0.00  0.00    -0.276 OA
ATOM      4  N1  CHE B   09     15.675  65.671   9.029  0.00  0.00    -0.256 N 
ATOM      5  C3  CHE B   09     15.754  66.523   4.986  0.00  0.00    +0.200 A 
ATOM      6  N2  CHE B   09     15.559  66.488   4.003  0.00  0.00    -0.212 NA
ATOM      7  C4  CHE B   09     17.350  67.226  10.826  0.00  0.00    +0.117 A 
ATOM      8  C11 CHE B   09     17.865  67.821  10.758  0.00  0.00    +0.077 A 
ATOM      9  N6  CHE B   09     16.687  67.410   5.871  0.00  0.00    -0.325 N 
ATOM     10  H4  CHE B   09     14.346  65.087   4.162  0.00  0.00    +0.158 HD
ATOM     11  H15 CHE B   09     16.453  67.710   2.877  0.00  0.00    +0.169 HD
ENDROOT
BRANCH   8  12
ATOM     12  C12 CHE B   09     17.536  68.960   2.735  0.00  0.00    +0.003 A 
ATOM     13  C13 CHE B   09     18.690  69.418   3.566  0.00  0.00    +0.012 A 
ATOM     14  C14 CHE B   09     20.295  69.790   6.345  0.00  0.00    +0.030 A 
ATOM     15  C15 CHE B   09     20.248  69.929   5.343  0.00  0.00    +0.089 A 
ATOM     16  N4  CHE B   09     22.244  70.182  10.081  0.00  0.00    -0.252 NA
ATOM     17  C16 CHE B   09     22.162  70.302   9.084  0.00  0.00    +0.131 A 
ATOM     18  C17 CHE B   09     21.194  69.780   9.234  0.00  0.00    +0.131 A 
ATOM     19  N5  CHE B   09     19.944  69.271   8.418  0.00  0.00    -0.252 NA
ATOM     20  C18 CHE B   09     18.713  69.595   2.553  0.00  0.00    +0.090 A 
ATOM     21  C19 CHE B   09     17.658  69.026   2.716  0.00  0.00    +0.040 A 
ENDBRANCH   8  12
BRANCH   7  22
ATOM     22  C5  CHE B   09     16.524  67.602   3.876  0.00  0.00    +0.092 A 
ATOM     23  C6  CHE B   09     17.374  66.897  10.821  0.00  0.00    +0.033 A 
ATOM     24  C7  CHE B   09     16.666  67.218   4.865  0.00  0.00    +0.042 A 
ATOM     25  C8  CHE B   09     16.937  68.209   7.859  0.00  0.00    +0.144 A 
ATOM     26  F1  CHE B   09     16.801  68.514   6.869  0.00  0.00    -0.204 F 
ATOM     27  C9  CHE B   09     16.660  68.888   5.881  0.00  0.00    +0.074 A 
ATOM     28  C10 CHE B   09     16.812  69.945   7.882  0.00  0.00    +0.068 C 
ATOM     29  N3  CHE B   09     17.257  68.522  10.843  0.00  0.00    -0.247 NA
ENDBRANCH   7  22
TORSDOF 2
ENDMDL
MODEL 5
REMARK VINA RESULT:     -10.6      2.408      5.290
REMARK  Name = dock_mp/CHEMBL5/CHEMBL519939.pdb
REMARK  4 active torsions:
REMARK  status: ('A' for Active; 'I' for Inactive)
REMARK    1  A    between atoms: C1_1  and  C2_2
REMARK    2  A    between atoms: C4_7  and  C5_8
REMARK    3  A    between atoms: C9_13  and  C10_14
REMARK    4  A    between atoms: C11_16  and  C12_17
REMARK                            x       y       z     vdW  Elec       q    Type
REMARK                         _______ _______ _______ _____ _____    ______ ____
ROOT
ATOM      1  C1  CHE B   09     19.689  69.619   3.626  0.00  0.00    +0.109 C 
ATOM      2  C2  CHE B   09     19.167  69.167   4.390  0.00  0.00    +0.216 C 
ATOM      3  O1  CHE B   09     19.282  69.033   5.859  0.00  0.00    -0.276 OA
ATOM      4  N1  CHE B   09     21.276  70.293   6.214  0.00  0.00    -0.256 N 
ATOM      5  C3  CHE B   09     18.079  68.458   4.346  0.00  0.00    +0.200 A 
ATOM      6  N2  CHE B   09     17.447  68.144   3.635  0.00  0.00    -0.212 NA
ATOM      7  C4  CHE B   09     21.542  70.056   9.100  0.00  0.00    +0.117 A 
ATOM      8  C11 CHE B   09     21.142  69.710   9.686  0.00  0.00    +0.077 A 
ATOM      9  N6  CHE B   09     18.138  68.276   5.897  0.00  0.00    -0.325 N 
ATOM     10  H4  CHE B   09     18.389  68.960   2.254  0.00  0.00    +0.158 HD
ATOM     11  H15 CHE B   09     15.968  67.097   4.162  0.00  0.00    +0.169 HD
ENDROOT
BRANCH   8  12
ATOM     12  C12 CHE B   09     15.127  66.368   5.394  0.00  0.00    +0.003 A 
ATOM     13  C13 CHE B   09     15.071  66.511   6.880  0.00  0.00    +0.012 A 
ATOM     14  C14 CHE B   09     16.253  67.399   9.753  0.00  0.00    +0.030 A 
ATOM     15  C15 CHE B   09     15.505  66.982   9.212  0.00  0.00    +0.089 A 
ATOM     16  N4  CHE B   09     17.967  68.629  13.421  0.00  0.00    -0.252 NA
ATOM     17  C16 CHE B   09     17.244  68.221  12.850  0.00  0.00    +0.131 A 
ATOM     18  C17 CHE B   09     17.946  68.460  12.024  0.00  0.00    +0.131 A 
ATOM     19  N5  CHE B   09     18.071  68.341  10.456  0.00  0.00    -0.252 NA
ATOM     20  C18 CHE B   09     14.273  66.078   6.398  0.00  0.00    +0.090 A 
ATOM     21  C19 CHE B   09     15.038  66.338   5.498  0.00  0.00    +0.040 A 
ENDBRANCH   8  12
BRANCH   7  22
ATOM     22  C5  CHE B   09     16.697  67.494   4.733  0.00  0.00    +0.092 A 
ATOM     23  C6  CHE B   09     21.543  70.351   8.952  0.00  0.00    +0.033 A 
ATOM     24  C7  CHE B   09     17.389  68.157   5.208  0.00  0.00    +0.042 A 
ATOM     25  C8  CHE B   09     19.464  68.221   7.598  0.00  0.00    +0.144 A 
ATOM     26  F1  CHE B   09     18.772  67.631   7.087  0.00  0.00    -0.204 F 
ATOM     27  C9  CHE B   09     18.079  66.977   6.607  0.00  0.00    +0.074 A 
ATOM     28  C10 CHE B   09     19.461  66.666   8.378  0.00  0.00    +0.068 C 
ATOM     29  N3  CHE B   09     21.540  68.894   9.682  0.00  0.00    -0.247 NA
ENDBRANCH   7  22
TORSDOF 2
ENDMDL
MODEL 6
REMARK VINA RESULT:     -10.5      2.213      3.511
REMARK  Name = dock_mp/CHEMBL5/CHEMBL519939.pdb
REMARK  4 active torsions:
REMARK  status: ('A' for Active; 'I' for Inactive)
REMARK    1  A    between atoms: C1_1  and  C2_2
REMARK    2  A    between atoms: C4_7  and  C5_8
REMARK    3  A    between atoms: C9_13  and  C10_14
REMARK    4  A    between atoms: C11_16  and  C12_17
REMARK                            x       y       z     vdW  Elec       q    Type
REMARK                         _______ _______ _______ _____ _____    ______ ____
ROOT
ATOM      1  C1  CHE B   09     14.795  67.169   7.862  0.00  0.00    +0.109 C 
ATOM      2  C2  CHE B   09     15.749  67.503   7.668  0.00  0.00    +0.216 C 
ATOM      3  O1  CHE B   09     16.932  67.934   8.445  0.00  0.00    -0.276 OA
ATOM      4  N1  CHE B   09     16.072  67.667  10.654  0.00  0.00    -0.256 N 
ATOM      5  C3  CHE B   09     16.346  67.695   6.530  0.00  0.00    +0.200 A 
ATOM      6  N2  CHE B   09     16.109  67.595   5.561  0.00  0.00    -0.212 NA
ATOM      7  C4  CHE B   09     18.373  68.507  12.220  0.00  0.00    +0.117 A 
ATOM      8  C11 CHE B   09     19.106  68.763  12.071  0.00  0.00    +0.077 A 
ATOM      9  N6  CHE B   09     17.631  68.162   7.285  0.00  0.00    -0.325 N 
ATOM     10  H4  CHE B   09     14.385  66.991   5.912  0.00  0.00    +0.158 HD
ATOM     11  H15 CHE B   09     17.419  68.036   4.277  0.00  0.00    +0.169 HD
ENDROOT
BRANCH   8  12
ATOM     12  C12 CHE B   09     18.958  68.575   3.965  0.00  0.00    +0.003 A 
ATOM     13  C13 CHE B   09     20.032  69.274   4.734  0.00  0.00    +0.012 A 
ATOM     14  C14 CHE B   09     21.491  70.243   7.448  0.00  0.00    +0.030 A 
ATOM     15  C15 CHE B   09     21.468  70.216   6.436  0.00  0.00    +0.089 A 
ATOM     16  N4  CHE B   09     23.256  71.419  11.110  0.00  0.00    -0.252 NA
ATOM     17  C16 CHE B   09     23.199  71.371  10.105  0.00  0.00    +0.131 A 
ATOM     18  C17 CHE B   09     22.282  70.784  10.318  0.00  0.00    +0.131 A 
ATOM     19  N5  CHE B   09     21.117  70.027   9.570  0.00  0.00    -0.252 NA
ATOM     20  C18 CHE B   09     20.074  69.289   3.706  0.00  0.00    +0.090 A 
ATOM     21  C19 CHE B   09     19.074  68.649   3.938  0.00  0.00    +0.040 A 
ENDBRANCH   8  12
BRANCH   7  22
ATOM     22  C5  CHE B   09     17.481  68.075   5.282  0.00  0.00    +0.092 A 
ATOM     23  C6  CHE B   09     18.081  68.653  12.264  0.00  0.00    +0.033 A 
ATOM     24  C7  CHE B   09     17.314  68.283   6.318  0.00  0.00    +0.042 A 
ATOM     25  C8  CHE B   09     18.721  67.957   9.135  0.00  0.00    +0.144 A 
ATOM     26  F1  CHE B   09     18.817  67.784   8.110  0.00  0.00    -0.204 F 
ATOM     27  C9  CHE B   09     18.974  67.580   7.075  0.00  0.00    +0.074 A 
ATOM     28  C10 CHE B   09     20.264  67.187   8.899  0.00  0.00    +0.068 C 
ATOM     29  N3  CHE B   09     19.526  67.932  12.044  0.00  0.00    -0.247 NA
ENDBRANCH   7  22
TORSDOF 2
ENDMDL
MODEL 7
REMARK VINA RESULT:     -10.4      2.016      5.354
REMARK  Name = dock_mp/CHEMBL5/CHEMBL519939.pdb
REMARK  4 active torsions:
REMARK  status: ('A' for Active; 'I' for Inactive)
REMARK    1  A    between atoms: C1_1  and  C2_2
REMARK    2  A    between atoms: C4_7  and  C5_8
REMARK    3  A    between atoms: C9_13  and  C10_14
REMARK    4  A    between atoms: C11_16  and  C12_17
REMARK                            x       y       z     vdW  Elec       q    Type
REMARK                         _______ _______ _______ _____ _____    ______ ____
ROOT
ATOM      1  C1  CHE B   09     16.366  68.107  10.314  0.00  0.00    +0.109 C 
ATOM      2  C2  CHE B   09     16.719  68.165   9.348  0.00  0.00    +0.216 C 
ATOM      3  O1  CHE B   09     18.002  68.458   8.672  0.00  0.00    -0.276 OA
ATOM      4  N1  CHE B   09     19.375  68.847  10.583  0.00  0.00    -0.256 N 
ATOM      5  C3  CHE B   09     16.094  67.981   8.223  0.00  0.00    +0.200 A 
ATOM      6  N2  CHE B   09     15.161  67.745   7.943  0.00  0.00    -0.212 NA
ATOM      7  C4  CHE B   09     21.916  69.429   9.296  0.00  0.00    +0.117 A 
ATOM      8  C11 CHE B   09     22.187  69.473   8.555  0.00  0.00    +0.077 A 
ATOM      9  N6  CHE B   09     17.415  68.280   7.444  0.00  0.00    -0.325 N 
ATOM     10  H4  CHE B   09     14.524  67.641   9.687  0.00  0.00    +0.158 HD
ATOM     11  H15 CHE B   09     14.800  67.604   6.096  0.00  0.00    +0.169 HD
ENDROOT
BRANCH   8  12
ATOM     12  C12 CHE B   09     15.369  67.698   4.540  0.00  0.00    +0.003 A 
ATOM     13  C13 CHE B   09     16.600  68.195   3.854  0.00  0.00    +0.012 A 
ATOM     14  C14 CHE B   09     19.660  69.227   3.780  0.00  0.00    +0.030 A 
ATOM     15  C15 CHE B   09     18.806  69.004   3.284  0.00  0.00    +0.089 A 
ATOM     16  N4  CHE B   09     23.676  70.556   3.885  0.00  0.00    -0.252 NA
ATOM     17  C16 CHE B   09     22.810  70.325   3.426  0.00  0.00    +0.131 A 
ATOM     18  C17 CHE B   09     22.481  70.085   4.459  0.00  0.00    +0.131 A 
ATOM     19  N5  CHE B   09     21.217  69.564   5.247  0.00  0.00    -0.252 NA
ATOM     20  C18 CHE B   09     15.769  67.989   3.284  0.00  0.00    +0.090 A 
ATOM     21  C19 CHE B   09     15.410  67.728   4.409  0.00  0.00    +0.040 A 
ENDBRANCH   8  12
BRANCH   7  22
ATOM     22  C5  CHE B   09     15.668  67.829   6.555  0.00  0.00    +0.092 A 
ATOM     23  C6  CHE B   09     21.787  69.651   9.503  0.00  0.00    +0.033 A 
ATOM     24  C7  CHE B   09     16.431  68.281   7.154  0.00  0.00    +0.042 A 
ATOM     25  C8  CHE B   09     19.562  68.188   7.605  0.00  0.00    +0.144 A 
ATOM     26  F1  CHE B   09     18.768  67.790   7.056  0.00  0.00    -0.204 F 
ATOM     27  C9  CHE B   09     18.002  67.345   6.464  0.00  0.00    +0.074 A 
ATOM     28  C10 CHE B   09     20.246  67.015   6.516  0.00  0.00    +0.068 C 
ATOM     29  N3  CHE B   09     22.427  68.553   8.482  0.00  0.00    -0.247 NA
ENDBRANCH   7  22
TORSDOF 2
ENDMDL
MODEL 8
REMARK VINA RESULT:     -10.3      2.716      5.792
REMARK  Name = dock_mp/CHEMBL5/CHEMBL519939.pdb
REMARK  4 active torsions:
REMARK  status: ('A' for Active; 'I' for Inactive)
REMARK    1  A    between atoms: C1_1  and  C2_2
REMARK    2  A    between atoms: C4_7  and  C5_8
REMARK    3  A    between atoms: C9_13  and  C10_14
REMARK    4  A    between atoms: C11_16  and  C12_17
REMARK                            x       y       z     vdW  Elec       q    Type
REMARK                         _______ _______ _______ _____ _____    ______ ____
ROOT
ATOM      1  C1  CHE B   09     21.923  70.382  10.981  0.00  0.00    +0.109 C 
ATOM      2  C2  CHE B   09     21.451  70.054  10.126  0.00  0.00    +0.216 C 
ATOM      3  O1  CHE B   09     20.220  69.312   9.777  0.00  0.00    -0.276 OA
ATOM      4  N1  CHE B   09     19.353  68.934  11.967  0.00  0.00    -0.256 N 
ATOM      5  C3  CHE B   09     21.802  70.186   8.882  0.00  0.00    +0.200 A 
ATOM      6  N2  CHE B   09     22.565  70.604   8.384  0.00  0.00    -0.212 NA
ATOM      7  C4  CHE B   09     16.923  67.472  11.328  0.00  0.00    +0.117 A 
ATOM      8  C11 CHE B   09     16.561  67.221  10.672  0.00  0.00    +0.077 A 
ATOM      9  N6  CHE B   09     20.520  69.409   8.442  0.00  0.00    -0.325 N 
ATOM     10  H4  CHE B   09     23.418  71.195   9.928  0.00  0.00    +0.158 HD
ATOM     11  H15 CHE B   09     22.563  70.491   6.501  0.00  0.00    +0.169 HD
ENDROOT
BRANCH   8  12
ATOM     12  C12 CHE B   09     21.801  69.964   5.123  0.00  0.00    +0.003 A 
ATOM     13  C13 CHE B   09     20.529  69.272   4.756  0.00  0.00    +0.012 A 
ATOM     14  C14 CHE B   09     17.743  67.779   5.424  0.00  0.00    +0.030 A 
ATOM     15  C15 CHE B   09     18.401  68.123   4.736  0.00  0.00    +0.089 A 
ATOM     16  N4  CHE B   09     14.134  65.848   6.498  0.00  0.00    -0.252 NA
ATOM     17  C16 CHE B   09     14.811  66.204   5.843  0.00  0.00    +0.131 A 
ATOM     18  C17 CHE B   09     15.348  66.507   6.766  0.00  0.00    +0.131 A 
ATOM     19  N5  CHE B   09     16.673  67.229   7.225  0.00  0.00    -0.252 NA
ATOM     20  C18 CHE B   09     21.148  69.594   4.001  0.00  0.00    +0.090 A 
ATOM     21  C19 CHE B   09     21.734  69.925   5.007  0.00  0.00    +0.040 A 
ENDBRANCH   8  12
BRANCH   7  22
ATOM     22  C5  CHE B   09     21.886  70.134   7.156  0.00  0.00    +0.092 A 
ATOM     23  C6  CHE B   09     16.881  67.759  11.486  0.00  0.00    +0.033 A 
ATOM     24  C7  CHE B   09     21.134  70.041   7.911  0.00  0.00    +0.042 A 
ATOM     25  C8  CHE B   09     19.157  67.898   9.143  0.00  0.00    +0.144 A 
ATOM     26  F1  CHE B   09     19.898  68.060   8.427  0.00  0.00    -0.204 F 
ATOM     27  C9  CHE B   09     20.649  68.162   7.676  0.00  0.00    +0.074 A 
ATOM     28  C10 CHE B   09     19.382  66.389   8.307  0.00  0.00    +0.068 C 
ATOM     29  N3  CHE B   09     17.091  66.345  10.703  0.00  0.00    -0.247 NA
ENDBRANCH   7  22
TORSDOF 2
ENDMDL
MODEL 9
REMARK VINA RESULT:     -10.2      2.238      3.940
REMARK  Name = dock_mp/CHEMBL5/CHEMBL519939.pdb
REMARK  4 active torsions:
REMARK  status: ('A' for Active; 'I' for Inactive)
REMARK    1  A    between atoms: C1_1  and  C2_2
REMARK    2  A    between atoms: C4_7  and  C5_8
REMARK    3  A    between atoms: C9_13  and  C10_14
REMARK    4  A    between atoms: C11_16  and  C12_17
REMARK                            x       y       z     vdW  Elec       q    Type
REMARK                         _______ _______ _______ _____ _____    ______ ____
ROOT
ATOM      1  C1  CHE B   09     18.109  68.154   3.091  0.00  0.00    +0.109 C 
ATOM      2  C2  CHE B   09     18.416  68.354   4.054  0.00  0.00    +0.216 C 
ATOM      3  O1  CHE B   09     17.905  68.147   5.426  0.00  0.00    -0.276 OA
ATOM      4  N1  CHE B   09     15.844  67.060   4.920  0.00  0.00    -0.256 N 
ATOM      5  C3  CHE B   09     19.501  68.933   4.475  0.00  0.00    +0.200 A 
ATOM      6  N2  CHE B   09     20.317  69.337   4.056  0.00  0.00    -0.212 NA
ATOM      7  C4  CHE B   09     14.800  66.633   7.600  0.00  0.00    +0.117 A 
ATOM      8  C11 CHE B   09     15.036  66.787   8.338  0.00  0.00    +0.077 A 
ATOM      9  N6  CHE B   09     19.023  68.747   5.951  0.00  0.00    -0.325 N 
ATOM     10  H4  CHE B   09     19.761  68.976   2.318  0.00  0.00    +0.158 HD
ATOM     11  H15 CHE B   09     21.631  70.065   5.197  0.00  0.00    +0.169 HD
ENDROOT
BRANCH   8  12
ATOM     12  C12 CHE B   09     22.127  70.387   6.748  0.00  0.00    +0.003 A 
ATOM     13  C13 CHE B   09     21.751  69.920   8.117  0.00  0.00    +0.012 A 
ATOM     14  C14 CHE B   09     19.770  68.548  10.270  0.00  0.00    +0.030 A 
ATOM     15  C15 CHE B   09     20.654  68.998  10.065  0.00  0.00    +0.089 A 
ATOM     16  N4  CHE B   09     17.042  66.722  12.939  0.00  0.00    -0.252 NA
ATOM     17  C16 CHE B   09     17.910  67.172  12.698  0.00  0.00    +0.131 A 
ATOM     18  C17 CHE B   09     17.467  67.187  11.681  0.00  0.00    +0.131 A 
ATOM     19  N5  CHE B   09     17.799  67.654  10.211  0.00  0.00    -0.252 NA
ATOM     20  C18 CHE B   09     22.667  70.369   7.985  0.00  0.00    +0.090 A 
ATOM     21  C19 CHE B   09     22.183  70.385   6.876  0.00  0.00    +0.040 A 
ENDBRANCH   8  12
BRANCH   7  22
ATOM     22  C5  CHE B   09     20.759  69.624   5.439  0.00  0.00    +0.092 A 
ATOM     23  C6  CHE B   09     14.834  66.379   7.392  0.00  0.00    +0.033 A 
ATOM     24  C7  CHE B   09     19.941  68.941   5.539  0.00  0.00    +0.042 A 
ATOM     25  C8  CHE B   09     17.270  68.551   7.192  0.00  0.00    +0.144 A 
ATOM     26  F1  CHE B   09     18.095  69.172   7.041  0.00  0.00    -0.204 F 
ATOM     27  C9  CHE B   09     18.914  69.847   6.934  0.00  0.00    +0.074 A 
ATOM     28  C10 CHE B   09     17.092  69.892   8.285  0.00  0.00    +0.068 C 
ATOM     29  N3  CHE B   09     14.668  67.636   8.417  0.00  0.00    -0.247 NA
ENDBRANCH   7  22
TORSDOF 2
ENDMDL
MODEL 10
REMARK VINA RESULT:      -9.9      2.473      6.531
REMARK  Name = dock_mp/CHEMBL5/CHEMBL519939.pdb
REMARK  4 active torsions:
REMARK  status: ('A' for Active; 'I' for Inactive)
REMARK    1  A    between atoms: C1_1  and  C2_2
REMARK    2  A    between atoms: C4_7  and  C5_8
REMARK    3  A    between atoms: C9_13  and  C10_14
REMARK    4  A    between atoms: C11_16  and  C12_17
REMARK                            x       y       z     vdW  Elec       q    Type
REMARK                         _______ _______ _______ _____ _____    ______ ____
ROOT
ATOM      1  C1  CHE B   09     17.997  67.346  11.876  0.00  0.00    +0.109 C 
ATOM      2  C2  CHE B   09     17.944  67.470  10.855  0.00  0.00    +0.216 C 
ATOM      3  O1  CHE B   09     18.795  68.018   9.777  0.00  0.00    -0.276 OA
ATOM      4  N1  CHE B   09     20.680  68.697  11.071  0.00  0.00    -0.256 N 
ATOM      5  C3  CHE B   09     16.992  67.152  10.029  0.00  0.00    +0.200 A 
ATOM      6  N2  CHE B   09     16.087  66.726  10.096  0.00  0.00    -0.212 NA
ATOM      7  C4  CHE B   09     22.387  69.786   8.985  0.00  0.00    +0.117 A 
ATOM      8  C11 CHE B   09     22.346  69.881   8.202  0.00  0.00    +0.077 A 
ATOM      9  N6  CHE B   09     17.838  67.714   8.842  0.00  0.00    -0.325 N 
ATOM     10  H4  CHE B   09     16.184  66.502  11.940  0.00  0.00    +0.158 HD
ATOM     11  H15 CHE B   09     15.094  66.500   8.507  0.00  0.00    +0.169 HD
ENDROOT
BRANCH   8  12
ATOM     12  C12 CHE B   09     15.008  66.700   6.861  0.00  0.00    +0.003 A 
ATOM     13  C13 CHE B   09     15.943  67.059   5.753  0.00  0.00    +0.012 A 
ATOM     14  C14 CHE B   09     18.720  68.201   4.558  0.00  0.00    +0.030 A 
ATOM     15  C15 CHE B   09     17.802  67.804   4.397  0.00  0.00    +0.089 A 
ATOM     16  N4  CHE B   09     22.418  69.731   3.185  0.00  0.00    -0.252 NA
ATOM     17  C16 CHE B   09     21.500  69.335   3.063  0.00  0.00    +0.131 A 
ATOM     18  C17 CHE B   09     21.484  69.368   4.173  0.00  0.00    +0.131 A 
ATOM     19  N5  CHE B   09     20.547  69.012   5.391  0.00  0.00    -0.252 NA
ATOM     20  C18 CHE B   09     15.027  66.659   5.512  0.00  0.00    +0.090 A 
ATOM     21  C19 CHE B   09     15.010  66.696   6.721  0.00  0.00    +0.040 A 
ENDBRANCH   8  12
BRANCH   7  22
ATOM     22  C5  CHE B   09     16.009  66.904   8.629  0.00  0.00    +0.092 A 
ATOM     23  C6  CHE B   09     22.501  69.548   9.184  0.00  0.00    +0.033 A 
ATOM     24  C7  CHE B   09     17.035  67.077   8.880  0.00  0.00    +0.042 A 
ATOM     25  C8  CHE B   09     19.370  69.144   8.335  0.00  0.00    +0.144 A 
ATOM     26  F1  CHE B   09     18.372  68.913   8.133  0.00  0.00    -0.204 F 
ATOM     27  C9  CHE B   09     17.350  68.732   7.888  0.00  0.00    +0.074 A 
ATOM     28  C10 CHE B   09     18.770  70.395   7.286  0.00  0.00    +0.068 C 
ATOM     29  N3  CHE B   09     21.939  70.721   8.201  0.00  0.00    -0.247 NA
ENDBRANCH   7  22
TORSDOF 2
ENDMDL
