MODEL 1
REMARK VINA RESULT:      -9.9      0.000      0.000
REMARK  Name = dock_mp/CHEMBL5/CHEMBL566877.pdb
REMARK  6 active torsions:
REMARK  status: ('A' for Active; 'I' for Inactive)
REMARK    1  A    between atoms: C1_1  and  C2_2
REMARK    2  A    between atoms: C6_6  and  C7_7
REMARK    3  A    between atoms: N2_10  and  C9_11
REMARK    4  A    between atoms: C9_11  and  C10_12
REMARK    5  A    between atoms: C13_15  and  C14_16
REMARK    6  A    between atoms: C18_21  and  C19_22
REMARK                            x       y       z     vdW  Elec       q    Type
REMARK                         _______ _______ _______ _____ _____    ______ ____
ROOT
ATOM      1  C7  CHE B   08     21.013  68.969  10.575  0.00  0.00    +0.093 A 
ATOM      2  N1  CHE B   08     23.176  69.422   8.144  0.00  0.00    -0.324 N 
ATOM      3  C8  CHE B   08     22.930  69.532   7.620  0.00  0.00    +0.194 A 
ATOM      4  N2  CHE B   08     25.085  69.989   5.171  0.00  0.00    -0.311 N 
ATOM      5  N3  CHE B   08     25.152  69.487   7.656  0.00  0.00    -0.214 NA
ATOM      6  C18 CHE B   08     20.213  68.853  11.219  0.00  0.00    +0.096 A 
ATOM      7  H7  CHE B   08     18.410  69.184   9.730  0.00  0.00    +0.169 HD
ATOM      8  H8  CHE B   08     25.868  70.112   4.491  0.00  0.00    +0.149 HD
ENDROOT
BRANCH   6   9
ATOM      9  C19 CHE B   08     23.440  68.833  11.047  0.00  0.00    -0.017 C 
ATOM     10  C20 CHE B   08     23.028  68.798  12.537  0.00  0.00    +0.009 C 
ATOM     11  C21 CHE B   08     24.436  68.771  13.196  0.00  0.00    +0.044 C 
ATOM     12  C22 CHE B   08     26.217  68.781  12.283  0.00  0.00    +0.130 C 
ATOM     13  O1  CHE B   08     27.486  68.762  12.643  0.00  0.00    -0.468 OA
ATOM     14  C23 CHE B   08     23.499  68.769  13.553  0.00  0.00    +0.395 C 
ATOM     15  O2  CHE B   08     25.666  68.815  11.095  0.00  0.00    -0.333 OA
ATOM     16  C24 CHE B   08     26.586  68.818  10.702  0.00  0.00    +0.191 C 
ATOM     17  C25 CHE B   08     24.276  68.842  10.472  0.00  0.00    +0.077 C 
ENDBRANCH   6   9
BRANCH   1  23
ATOM     18  C1  CHE B   08     27.989  71.616   9.756  0.00  0.00    +0.065 C 
ATOM     19  C2  CHE B   08     22.833  71.623  10.475  0.00  0.00    +0.039 A 
ATOM     20  C3  CHE B   08     22.690  71.144  10.467  0.00  0.00    +0.023 A 
ATOM     21  C4  CHE B   08     21.357  70.129  10.594  0.00  0.00    +0.004 A 
ATOM     22  C5  CHE B   08     27.762  67.378   9.543  0.00  0.00    +0.030 A 
ATOM     23  C6  CHE B   08     24.118  69.003  10.145  0.00  0.00    +0.090 A 
ATOM     24  N4  CHE B   08     21.648  71.107  10.610  0.00  0.00    -0.250 NA
ENDBRANCH   1  23
BRANCH   4  25
ATOM     25  C9  CHE B   08     22.855  70.037   5.117  0.00  0.00    +0.139 C 
BRANCH  25  26
ATOM     26  C10 CHE B   08     23.204  69.837   3.519  0.00  0.00    -0.030 A 
ATOM     27  C11 CHE B   08     22.194  69.668   3.708  0.00  0.00    +0.006 A 
ATOM     28  C12 CHE B   08     19.028  69.085   3.982  0.00  0.00    +0.017 A 
ATOM     29  C13 CHE B   08     23.095  69.381   0.943  0.00  0.00    +0.025 A 
ATOM     30  C16 CHE B   08     24.109  69.553   0.764  0.00  0.00    +0.017 A 
ATOM     31  C17 CHE B   08     19.259  69.214   4.475  0.00  0.00    +0.006 A 
BRANCH  29  32
ATOM     32  C14 CHE B   08     16.347  68.378   2.949  0.00  0.00    -0.070 C 
ATOM     33  C15 CHE B   08     16.727  68.886   1.645  0.00  0.00    +0.009 C 
ENDBRANCH  29  32
ENDBRANCH  25  26
ENDBRANCH   4  25
TORSDOF 5
ENDMDL
MODEL 2
REMARK VINA RESULT:      -9.2      1.354      2.095
REMARK  Name = dock_mp/CHEMBL5/CHEMBL566877.pdb
REMARK  6 active torsions:
REMARK  status: ('A' for Active; 'I' for Inactive)
REMARK    1  A    between atoms: C1_1  and  C2_2
REMARK    2  A    between atoms: C6_6  and  C7_7
REMARK    3  A    between atoms: N2_10  and  C9_11
REMARK    4  A    between atoms: C9_11  and  C10_12
REMARK    5  A    between atoms: C13_15  and  C14_16
REMARK    6  A    between atoms: C18_21  and  C19_22
REMARK                            x       y       z     vdW  Elec       q    Type
REMARK                         _______ _______ _______ _____ _____    ______ ____
ROOT
ATOM      1  C7  CHE B   08     21.419  69.273  11.605  0.00  0.00    +0.093 A 
ATOM      2  N1  CHE B   08     23.014  69.616   8.753  0.00  0.00    -0.324 N 
ATOM      3  C8  CHE B   08     22.663  69.603   8.278  0.00  0.00    +0.194 A 
ATOM      4  N2  CHE B   08     24.246  69.946   5.410  0.00  0.00    -0.311 N 
ATOM      5  N3  CHE B   08     24.833  69.872   7.875  0.00  0.00    -0.214 NA
ATOM      6  C18 CHE B   08     20.777  69.154  12.406  0.00  0.00    +0.096 A 
ATOM      7  H7  CHE B   08     18.709  68.985  11.276  0.00  0.00    +0.169 HD
ATOM      8  H8  CHE B   08     24.865  70.063   4.577  0.00  0.00    +0.149 HD
ENDROOT
BRANCH   6   9
ATOM      9  C19 CHE B   08     23.879  69.552  11.596  0.00  0.00    -0.017 C 
ATOM     10  C20 CHE B   08     23.799  69.292  13.119  0.00  0.00    +0.009 C 
ATOM     11  C21 CHE B   08     25.311  69.361  13.476  0.00  0.00    +0.044 C 
ATOM     12  C22 CHE B   08     26.848  69.697  12.239  0.00  0.00    +0.130 C 
ATOM     13  O1  CHE B   08     28.160  69.793  12.334  0.00  0.00    -0.468 OA
ATOM     14  C23 CHE B   08     24.476  69.202  14.007  0.00  0.00    +0.395 C 
ATOM     15  O2  CHE B   08     26.057  69.802  11.200  0.00  0.00    -0.333 OA
ATOM     16  C24 CHE B   08     26.867  69.964  10.637  0.00  0.00    +0.191 C 
ATOM     17  C25 CHE B   08     24.570  69.730  10.875  0.00  0.00    +0.077 C 
ENDBRANCH   6   9
BRANCH   1  23
ATOM     18  C1  CHE B   08     28.201  67.619   8.847  0.00  0.00    +0.065 C 
ATOM     19  C2  CHE B   08     23.340  66.907  10.568  0.00  0.00    +0.039 A 
ATOM     20  C3  CHE B   08     23.168  67.359  10.693  0.00  0.00    +0.023 A 
ATOM     21  C4  CHE B   08     21.833  68.177  11.302  0.00  0.00    +0.004 A 
ATOM     22  C5  CHE B   08     27.660  71.764   9.609  0.00  0.00    +0.030 A 
ATOM     23  C6  CHE B   08     24.350  69.664  10.563  0.00  0.00    +0.090 A 
ATOM     24  N4  CHE B   08     22.182  67.253  11.047  0.00  0.00    -0.250 NA
ENDBRANCH   1  23
BRANCH   4  25
ATOM     25  C9  CHE B   08     22.065  69.677   5.796  0.00  0.00    +0.139 C 
BRANCH  25  26
ATOM     26  C10 CHE B   08     22.082  69.785   4.152  0.00  0.00    -0.030 A 
ATOM     27  C11 CHE B   08     21.156  69.458   4.498  0.00  0.00    +0.006 A 
ATOM     28  C12 CHE B   08     18.191  68.430   5.267  0.00  0.00    +0.017 A 
ATOM     29  C13 CHE B   08     21.470  69.741   1.607  0.00  0.00    +0.025 A 
ATOM     30  C16 CHE B   08     22.401  70.070   1.269  0.00  0.00    +0.017 A 
ATOM     31  C17 CHE B   08     18.509  68.507   5.721  0.00  0.00    +0.006 A 
BRANCH  29  32
ATOM     32  C14 CHE B   08     15.430  67.557   4.659  0.00  0.00    -0.070 C 
ATOM     33  C15 CHE B   08     15.542  67.884   3.251  0.00  0.00    +0.009 C 
ENDBRANCH  29  32
ENDBRANCH  25  26
ENDBRANCH   4  25
TORSDOF 5
ENDMDL
MODEL 3
REMARK VINA RESULT:      -9.0      3.300      8.487
REMARK  Name = dock_mp/CHEMBL5/CHEMBL566877.pdb
REMARK  6 active torsions:
REMARK  status: ('A' for Active; 'I' for Inactive)
REMARK    1  A    between atoms: C1_1  and  C2_2
REMARK    2  A    between atoms: C6_6  and  C7_7
REMARK    3  A    between atoms: N2_10  and  C9_11
REMARK    4  A    between atoms: C9_11  and  C10_12
REMARK    5  A    between atoms: C13_15  and  C14_16
REMARK    6  A    between atoms: C18_21  and  C19_22
REMARK                            x       y       z     vdW  Elec       q    Type
REMARK                         _______ _______ _______ _____ _____    ______ ____
ROOT
ATOM      1  C7  CHE B   08     17.953  68.878   6.176  0.00  0.00    +0.093 A 
ATOM      2  N1  CHE B   08     20.798  69.978   7.396  0.00  0.00    -0.324 N 
ATOM      3  C8  CHE B   08     20.794  70.061   7.980  0.00  0.00    +0.194 A 
ATOM      4  N2  CHE B   08     23.639  71.165   9.219  0.00  0.00    -0.311 N 
ATOM      5  N3  CHE B   08     22.705  70.533   6.948  0.00  0.00    -0.214 NA
ATOM      6  C18 CHE B   08     17.003  68.537   5.955  0.00  0.00    +0.096 A 
ATOM      7  H7  CHE B   08     16.034  68.535   8.109  0.00  0.00    +0.169 HD
ATOM      8  H8  CHE B   08     24.589  71.511   9.480  0.00  0.00    +0.149 HD
ENDROOT
BRANCH   6   9
ATOM      9  C19 CHE B   08     19.868  69.280   4.659  0.00  0.00    -0.017 C 
ATOM     10  C20 CHE B   08     18.854  69.059   3.512  0.00  0.00    +0.009 C 
ATOM     11  C21 CHE B   08     19.780  69.320   2.291  0.00  0.00    +0.044 C 
ATOM     12  C22 CHE B   08     21.723  69.800   2.307  0.00  0.00    +0.130 C 
ATOM     13  O1  CHE B   08     22.661  70.056   1.416  0.00  0.00    -0.468 OA
ATOM     14  C23 CHE B   08     18.812  69.078   2.393  0.00  0.00    +0.395 C 
ATOM     15  O2  CHE B   08     21.772  69.778   3.616  0.00  0.00    -0.333 OA
ATOM     16  C24 CHE B   08     22.741  70.020   3.554  0.00  0.00    +0.191 C 
ATOM     17  C25 CHE B   08     20.844  69.518   4.797  0.00  0.00    +0.077 C 
ENDBRANCH   6   9
BRANCH   1  23
ATOM     18  C1  CHE B   08     25.270  68.320   4.597  0.00  0.00    +0.065 C 
ATOM     19  C2  CHE B   08     20.537  66.962   6.289  0.00  0.00    +0.039 A 
ATOM     20  C3  CHE B   08     20.241  67.357   6.207  0.00  0.00    +0.023 A 
ATOM     21  C4  CHE B   08     18.668  67.922   6.373  0.00  0.00    +0.004 A 
ATOM     22  C5  CHE B   08     23.603  72.083   3.540  0.00  0.00    +0.030 A 
ATOM     23  C6  CHE B   08     20.816  69.661   5.168  0.00  0.00    +0.090 A 
ATOM     24  N4  CHE B   08     19.271  67.116   6.539  0.00  0.00    -0.250 NA
ENDBRANCH   1  23
BRANCH   4  25
ATOM     25  C9  CHE B   08     21.728  70.696  10.270  0.00  0.00    +0.139 C 
BRANCH  25  26
ATOM     26  C10 CHE B   08     22.832  70.239  11.405  0.00  0.00    -0.030 A 
ATOM     27  C11 CHE B   08     21.891  69.847  11.616  0.00  0.00    +0.006 A 
ATOM     28  C12 CHE B   08     19.101  68.495  12.528  0.00  0.00    +0.017 A 
ATOM     29  C13 CHE B   08     24.049  69.192  13.474  0.00  0.00    +0.025 A 
ATOM     30  C16 CHE B   08     24.989  69.590  13.254  0.00  0.00    +0.017 A 
ATOM     31  C17 CHE B   08     19.044  68.793  12.056  0.00  0.00    +0.006 A 
BRANCH  29  32
ATOM     32  C14 CHE B   08     17.382  66.861  14.296  0.00  0.00    -0.070 C 
ATOM     33  C15 CHE B   08     18.463  66.528  15.203  0.00  0.00    +0.009 C 
ENDBRANCH  29  32
ENDBRANCH  25  26
ENDBRANCH   4  25
TORSDOF 5
ENDMDL
MODEL 4
REMARK VINA RESULT:      -8.8      3.981      9.447
REMARK  Name = dock_mp/CHEMBL5/CHEMBL566877.pdb
REMARK  6 active torsions:
REMARK  status: ('A' for Active; 'I' for Inactive)
REMARK    1  A    between atoms: C1_1  and  C2_2
REMARK    2  A    between atoms: C6_6  and  C7_7
REMARK    3  A    between atoms: N2_10  and  C9_11
REMARK    4  A    between atoms: C9_11  and  C10_12
REMARK    5  A    between atoms: C13_15  and  C14_16
REMARK    6  A    between atoms: C18_21  and  C19_22
REMARK                            x       y       z     vdW  Elec       q    Type
REMARK                         _______ _______ _______ _____ _____    ______ ____
ROOT
ATOM      1  C7  CHE B   08     19.824  69.752   4.442  0.00  0.00    +0.093 A 
ATOM      2  N1  CHE B   08     19.644  69.530   7.716  0.00  0.00    -0.324 N 
ATOM      3  C8  CHE B   08     20.113  69.751   7.998  0.00  0.00    +0.194 A 
ATOM      4  N2  CHE B   08     19.949  69.536  11.281  0.00  0.00    -0.311 N 
ATOM      5  N3  CHE B   08     18.512  68.907   9.289  0.00  0.00    -0.214 NA
ATOM      6  C18 CHE B   08     20.032  69.896   3.441  0.00  0.00    +0.096 A 
ATOM      7  H7  CHE B   08     22.149  70.935   3.587  0.00  0.00    +0.169 HD
ATOM      8  H8  CHE B   08     19.773  69.408  12.302  0.00  0.00    +0.149 HD
ENDROOT
BRANCH   6   9
ATOM      9  C19 CHE B   08     17.833  68.726   5.499  0.00  0.00    -0.017 C 
ATOM     10  C20 CHE B   08     17.357  68.436   4.056  0.00  0.00    +0.009 C 
ATOM     11  C21 CHE B   08     16.020  67.706   4.364  0.00  0.00    +0.044 C 
ATOM     12  C22 CHE B   08     15.227  67.305   6.157  0.00  0.00    +0.130 C 
ATOM     13  O1  CHE B   08     14.142  66.717   6.623  0.00  0.00    -0.468 OA
ATOM     14  C23 CHE B   08     16.501  67.954   3.519  0.00  0.00    +0.395 C 
ATOM     15  O2  CHE B   08     16.230  67.869   6.785  0.00  0.00    -0.333 OA
ATOM     16  C24 CHE B   08     15.780  67.638   7.648  0.00  0.00    +0.191 C 
ATOM     17  C25 CHE B   08     17.537  68.581   6.458  0.00  0.00    +0.077 C 
ENDBRANCH   6   9
BRANCH   1  23
ATOM     18  C1  CHE B   08     16.737  65.171   9.524  0.00  0.00    +0.065 C 
ATOM     19  C2  CHE B   08     20.039  66.880   5.880  0.00  0.00    +0.039 A 
ATOM     20  C3  CHE B   08     19.881  67.337   5.752  0.00  0.00    +0.023 A 
ATOM     21  C4  CHE B   08     20.206  68.647   4.752  0.00  0.00    +0.004 A 
ATOM     22  C5  CHE B   08     14.680  68.868   9.123  0.00  0.00    +0.030 A 
ATOM     23  C6  CHE B   08     17.856  68.691   6.639  0.00  0.00    +0.090 A 
ATOM     24  N4  CHE B   08     20.528  67.715   5.013  0.00  0.00    -0.250 NA
ENDBRANCH   1  23
BRANCH   4  25
ATOM     25  C9  CHE B   08     21.566  70.387   9.999  0.00  0.00    +0.139 C 
BRANCH  25  26
ATOM     26  C10 CHE B   08     22.436  69.857  11.295  0.00  0.00    -0.030 A 
ATOM     27  C11 CHE B   08     22.949  69.692  10.404  0.00  0.00    +0.006 A 
ATOM     28  C12 CHE B   08     24.774  69.053   7.815  0.00  0.00    +0.017 A 
ATOM     29  C13 CHE B   08     24.266  68.846  12.871  0.00  0.00    +0.025 A 
ATOM     30  C16 CHE B   08     23.745  69.015  13.759  0.00  0.00    +0.017 A 
ATOM     31  C17 CHE B   08     24.289  69.296   7.673  0.00  0.00    +0.006 A 
BRANCH  29  32
ATOM     32  C14 CHE B   08     27.183  68.028   6.438  0.00  0.00    -0.070 C 
ATOM     33  C15 CHE B   08     27.807  67.568   7.663  0.00  0.00    +0.009 C 
ENDBRANCH  29  32
ENDBRANCH  25  26
ENDBRANCH   4  25
TORSDOF 5
ENDMDL
MODEL 5
REMARK VINA RESULT:      -8.5      2.793      5.642
REMARK  Name = dock_mp/CHEMBL5/CHEMBL566877.pdb
REMARK  6 active torsions:
REMARK  status: ('A' for Active; 'I' for Inactive)
REMARK    1  A    between atoms: C1_1  and  C2_2
REMARK    2  A    between atoms: C6_6  and  C7_7
REMARK    3  A    between atoms: N2_10  and  C9_11
REMARK    4  A    between atoms: C9_11  and  C10_12
REMARK    5  A    between atoms: C13_15  and  C14_16
REMARK    6  A    between atoms: C18_21  and  C19_22
REMARK                            x       y       z     vdW  Elec       q    Type
REMARK                         _______ _______ _______ _____ _____    ______ ____
ROOT
ATOM      1  C7  CHE B   08     24.555  70.248   9.964  0.00  0.00    +0.093 A 
ATOM      2  N1  CHE B   08     21.677  68.871  10.746  0.00  0.00    -0.324 N 
ATOM      3  C8  CHE B   08     21.285  68.865  10.305  0.00  0.00    +0.194 A 
ATOM      4  N2  CHE B   08     18.393  67.487  11.073  0.00  0.00    -0.311 N 
ATOM      5  N3  CHE B   08     20.604  67.965  12.220  0.00  0.00    -0.214 NA
ATOM      6  C18 CHE B   08     25.391  70.706   9.563  0.00  0.00    +0.096 A 
ATOM      7  H7  CHE B   08     24.632  71.140   7.369  0.00  0.00    +0.169 HD
ATOM      8  H8  CHE B   08     17.531  67.030  11.444  0.00  0.00    +0.149 HD
ENDROOT
BRANCH   6   9
ATOM      9  C19 CHE B   08     24.199  69.352  12.245  0.00  0.00    -0.017 C 
ATOM     10  C20 CHE B   08     25.661  69.779  12.518  0.00  0.00    +0.009 C 
ATOM     11  C21 CHE B   08     25.796  69.315  13.996  0.00  0.00    +0.044 C 
ATOM     12  C22 CHE B   08     24.409  68.427  15.133  0.00  0.00    +0.130 C 
ATOM     13  O1  CHE B   08     24.321  67.969  16.367  0.00  0.00    -0.468 OA
ATOM     14  C23 CHE B   08     26.415  69.761  13.346  0.00  0.00    +0.395 C 
ATOM     15  O2  CHE B   08     23.526  68.447  14.165  0.00  0.00    -0.333 OA
ATOM     16  C24 CHE B   08     22.880  68.002  14.786  0.00  0.00    +0.191 C 
ATOM     17  C25 CHE B   08     23.418  68.910  12.717  0.00  0.00    +0.077 C 
ENDBRANCH   6   9
BRANCH   1  23
ATOM     18  C1  CHE B   08     22.111  64.881  14.607  0.00  0.00    +0.065 C 
ATOM     19  C2  CHE B   08     24.425  67.075  10.492  0.00  0.00    +0.039 A 
ATOM     20  C3  CHE B   08     24.365  67.569  10.545  0.00  0.00    +0.023 A 
ATOM     21  C4  CHE B   08     24.701  69.054   9.835  0.00  0.00    +0.004 A 
ATOM     22  C5  CHE B   08     21.116  68.805  15.900  0.00  0.00    +0.030 A 
ATOM     23  C6  CHE B   08     23.171  68.892  12.428  0.00  0.00    +0.090 A 
ATOM     24  N4  CHE B   08     24.823  68.047   9.727  0.00  0.00    -0.250 NA
ENDBRANCH   1  23
BRANCH   4  25
ATOM     25  C9  CHE B   08     19.061  68.388   9.144  0.00  0.00    +0.139 C 
BRANCH  25  26
ATOM     26  C10 CHE B   08     17.502  67.994   8.784  0.00  0.00    -0.030 A 
ATOM     27  C11 CHE B   08     18.028  68.265   7.928  0.00  0.00    +0.006 A 
ATOM     28  C12 CHE B   08     19.394  69.054   5.108  0.00  0.00    +0.017 A 
ATOM     29  C13 CHE B   08     15.226  67.515   7.582  0.00  0.00    +0.025 A 
ATOM     30  C16 CHE B   08     14.706  67.245   8.446  0.00  0.00    +0.017 A 
ATOM     31  C17 CHE B   08     19.756  69.097   5.534  0.00  0.00    +0.006 A 
BRANCH  29  32
ATOM     32  C14 CHE B   08     19.414  69.475   2.180  0.00  0.00    -0.070 C 
ATOM     33  C15 CHE B   08     18.055  68.999   2.007  0.00  0.00    +0.009 C 
ENDBRANCH  29  32
ENDBRANCH  25  26
ENDBRANCH   4  25
TORSDOF 5
ENDMDL
MODEL 6
REMARK VINA RESULT:      -8.4      2.328      3.326
REMARK  Name = dock_mp/CHEMBL5/CHEMBL566877.pdb
REMARK  6 active torsions:
REMARK  status: ('A' for Active; 'I' for Inactive)
REMARK    1  A    between atoms: C1_1  and  C2_2
REMARK    2  A    between atoms: C6_6  and  C7_7
REMARK    3  A    between atoms: N2_10  and  C9_11
REMARK    4  A    between atoms: C9_11  and  C10_12
REMARK    5  A    between atoms: C13_15  and  C14_16
REMARK    6  A    between atoms: C18_21  and  C19_22
REMARK                            x       y       z     vdW  Elec       q    Type
REMARK                         _______ _______ _______ _____ _____    ______ ____
ROOT
ATOM      1  C7  CHE B   08     22.686  68.760  12.013  0.00  0.00    +0.093 A 
ATOM      2  N1  CHE B   08     22.903  69.266   8.774  0.00  0.00    -0.324 N 
ATOM      3  C8  CHE B   08     22.403  69.456   8.526  0.00  0.00    +0.194 A 
ATOM      4  N2  CHE B   08     22.603  69.969   5.278  0.00  0.00    -0.311 N 
ATOM      5  N3  CHE B   08     24.128  69.194   7.150  0.00  0.00    -0.214 NA
ATOM      6  C18 CHE B   08     22.455  68.652  13.015  0.00  0.00    +0.096 A 
ATOM      7  H7  CHE B   08     20.188  69.315  13.007  0.00  0.00    +0.169 HD
ATOM      8  H8  CHE B   08     22.800  70.090   4.260  0.00  0.00    +0.149 HD
ENDROOT
BRANCH   6   9
ATOM      9  C19 CHE B   08     24.827  68.341  10.843  0.00  0.00    -0.017 C 
ATOM     10  C20 CHE B   08     25.397  68.011  12.243  0.00  0.00    +0.009 C 
ATOM     11  C21 CHE B   08     26.868  67.690  11.857  0.00  0.00    +0.044 C 
ATOM     12  C22 CHE B   08     27.692  67.724  10.033  0.00  0.00    +0.130 C 
ATOM     13  O1  CHE B   08     28.879  67.494   9.505  0.00  0.00    -0.468 OA
ATOM     14  C23 CHE B   08     26.362  67.703  12.722  0.00  0.00    +0.395 C 
ATOM     15  O2  CHE B   08     26.564  68.084   9.472  0.00  0.00    -0.333 OA
ATOM     16  C24 CHE B   08     27.036  68.081   8.590  0.00  0.00    +0.191 C 
ATOM     17  C25 CHE B   08     25.127  68.393   9.875  0.00  0.00    +0.077 C 
ENDBRANCH   6   9
BRANCH   1  23
ATOM     18  C1  CHE B   08     28.033  70.765   7.142  0.00  0.00    +0.065 C 
ATOM     19  C2  CHE B   08     24.517  71.189  10.958  0.00  0.00    +0.039 A 
ATOM     20  C3  CHE B   08     24.313  70.735  11.010  0.00  0.00    +0.023 A 
ATOM     21  C4  CHE B   08     23.178  69.858  11.885  0.00  0.00    +0.004 A 
ATOM     22  C5  CHE B   08     26.937  66.670   6.846  0.00  0.00    +0.030 A 
ATOM     23  C6  CHE B   08     24.812  68.542   9.720  0.00  0.00    +0.090 A 
ATOM     24  N4  CHE B   08     23.594  70.784  11.778  0.00  0.00    -0.250 NA
ENDBRANCH   1  23
BRANCH   4  25
ATOM     25  C9  CHE B   08     20.860  70.237   6.646  0.00  0.00    +0.139 C 
BRANCH  25  26
ATOM     26  C10 CHE B   08     20.098  69.851   5.237  0.00  0.00    -0.030 A 
ATOM     27  C11 CHE B   08     19.577  69.483   6.060  0.00  0.00    +0.006 A 
ATOM     28  C12 CHE B   08     17.748  68.223   8.407  0.00  0.00    +0.017 A 
ATOM     29  C13 CHE B   08     18.446  68.942   3.421  0.00  0.00    +0.025 A 
ATOM     30  C16 CHE B   08     18.975  69.315   2.601  0.00  0.00    +0.017 A 
ATOM     31  C17 CHE B   08     18.197  68.487   8.612  0.00  0.00    +0.006 A 
BRANCH  29  32
ATOM     32  C14 CHE B   08     15.422  66.733   9.465  0.00  0.00    -0.070 C 
ATOM     33  C15 CHE B   08     14.668  67.191   8.315  0.00  0.00    +0.009 C 
ENDBRANCH  29  32
ENDBRANCH  25  26
ENDBRANCH   4  25
TORSDOF 5
ENDMDL
MODEL 7
REMARK VINA RESULT:      -8.3      3.111      4.512
REMARK  Name = dock_mp/CHEMBL5/CHEMBL566877.pdb
REMARK  6 active torsions:
REMARK  status: ('A' for Active; 'I' for Inactive)
REMARK    1  A    between atoms: C1_1  and  C2_2
REMARK    2  A    between atoms: C6_6  and  C7_7
REMARK    3  A    between atoms: N2_10  and  C9_11
REMARK    4  A    between atoms: C9_11  and  C10_12
REMARK    5  A    between atoms: C13_15  and  C14_16
REMARK    6  A    between atoms: C18_21  and  C19_22
REMARK                            x       y       z     vdW  Elec       q    Type
REMARK                         _______ _______ _______ _____ _____    ______ ____
ROOT
ATOM      1  C7  CHE B   08     20.585  68.640   9.260  0.00  0.00    +0.093 A 
ATOM      2  N1  CHE B   08     23.866  68.458   9.256  0.00  0.00    -0.324 N 
ATOM      3  C8  CHE B   08     24.105  68.439   8.717  0.00  0.00    +0.194 A 
ATOM      4  N2  CHE B   08     27.394  68.257   8.696  0.00  0.00    -0.311 N 
ATOM      5  N3  CHE B   08     25.537  68.378  10.417  0.00  0.00    -0.214 NA
ATOM      6  C18 CHE B   08     19.568  68.694   9.090  0.00  0.00    +0.096 A 
ATOM      7  H7  CHE B   08     19.523  68.671   6.729  0.00  0.00    +0.169 HD
ATOM      8  H8  CHE B   08     28.428  68.201   8.828  0.00  0.00    +0.149 HD
ENDROOT
BRANCH   6   9
ATOM      9  C19 CHE B   08     21.818  68.595  11.407  0.00  0.00    -0.017 C 
ATOM     10  C20 CHE B   08     20.432  68.757  12.076  0.00  0.00    +0.009 C 
ATOM     11  C21 CHE B   08     20.865  68.788  13.568  0.00  0.00    +0.044 C 
ATOM     12  C22 CHE B   08     22.719  68.650  14.310  0.00  0.00    +0.130 C 
ATOM     13  O1  CHE B   08     23.284  68.654  15.502  0.00  0.00    -0.468 OA
ATOM     14  C23 CHE B   08     19.982  68.848  13.097  0.00  0.00    +0.395 C 
ATOM     15  O2  CHE B   08     23.245  68.543  13.116  0.00  0.00    -0.333 OA
ATOM     16  C24 CHE B   08     24.144  68.480  13.550  0.00  0.00    +0.191 C 
ATOM     17  C25 CHE B   08     22.797  68.515  11.659  0.00  0.00    +0.077 C 
ENDBRANCH   6   9
BRANCH   1  23
ATOM     18  C1  CHE B   08     26.210  70.943  13.663  0.00  0.00    +0.065 C 
ATOM     19  C2  CHE B   08     22.286  71.187  10.251  0.00  0.00    +0.039 A 
ATOM     20  C3  CHE B   08     22.121  70.718  10.195  0.00  0.00    +0.023 A 
ATOM     21  C4  CHE B   08     20.985  69.774   9.395  0.00  0.00    +0.004 A 
ATOM     22  C5  CHE B   08     25.534  66.752  13.853  0.00  0.00    +0.030 A 
ATOM     23  C6  CHE B   08     22.953  68.531  11.312  0.00  0.00    +0.090 A 
ATOM     24  N4  CHE B   08     21.323  70.729   9.509  0.00  0.00    -0.250 NA
ENDBRANCH   1  23
BRANCH   4  25
ATOM     25  C9  CHE B   08     25.971  68.317   6.978  0.00  0.00    +0.139 C 
BRANCH  25  26
ATOM     26  C10 CHE B   08     27.178  67.383   6.355  0.00  0.00    -0.030 A 
ATOM     27  C11 CHE B   08     26.627  67.840   5.598  0.00  0.00    +0.006 A 
ATOM     28  C12 CHE B   08     25.109  69.111   3.045  0.00  0.00    +0.017 A 
ATOM     29  C13 CHE B   08     28.839  66.118   4.775  0.00  0.00    +0.025 A 
ATOM     30  C16 CHE B   08     29.386  65.664   5.540  0.00  0.00    +0.017 A 
ATOM     31  C17 CHE B   08     24.880  69.278   3.528  0.00  0.00    +0.006 A 
BRANCH  29  32
ATOM     32  C14 CHE B   08     24.663  69.546   0.153  0.00  0.00    -0.070 C 
ATOM     33  C15 CHE B   08     25.878  68.853  -0.229  0.00  0.00    +0.009 C 
ENDBRANCH  29  32
ENDBRANCH  25  26
ENDBRANCH   4  25
TORSDOF 5
ENDMDL
MODEL 8
REMARK VINA RESULT:      -8.1      4.762      9.095
REMARK  Name = dock_mp/CHEMBL5/CHEMBL566877.pdb
REMARK  6 active torsions:
REMARK  status: ('A' for Active; 'I' for Inactive)
REMARK    1  A    between atoms: C1_1  and  C2_2
REMARK    2  A    between atoms: C6_6  and  C7_7
REMARK    3  A    between atoms: N2_10  and  C9_11
REMARK    4  A    between atoms: C9_11  and  C10_12
REMARK    5  A    between atoms: C13_15  and  C14_16
REMARK    6  A    between atoms: C18_21  and  C19_22
REMARK                            x       y       z     vdW  Elec       q    Type
REMARK                         _______ _______ _______ _____ _____    ______ ____
ROOT
ATOM      1  C7  CHE B   08     22.029  70.139  10.410  0.00  0.00    +0.093 A 
ATOM      2  N1  CHE B   08     24.037  69.730  12.978  0.00  0.00    -0.324 N 
ATOM      3  C8  CHE B   08     24.572  69.968  12.906  0.00  0.00    +0.194 A 
ATOM      4  N2  CHE B   08     26.598  69.567  15.472  0.00  0.00    -0.311 N 
ATOM      5  N3  CHE B   08     24.221  68.943  14.847  0.00  0.00    -0.214 NA
ATOM      6  C18 CHE B   08     21.529  70.351   9.531  0.00  0.00    +0.096 A 
ATOM      7  H7  CHE B   08     23.204  71.532   8.358  0.00  0.00    +0.169 HD
ATOM      8  H8  CHE B   08     27.134  69.372  16.346  0.00  0.00    +0.149 HD
ENDROOT
BRANCH   6   9
ATOM      9  C19 CHE B   08     21.235  68.915  12.411  0.00  0.00    -0.017 C 
ATOM     10  C20 CHE B   08     19.864  68.863  11.695  0.00  0.00    +0.009 C 
ATOM     11  C21 CHE B   08     19.032  68.120  12.777  0.00  0.00    +0.044 C 
ATOM     12  C22 CHE B   08     19.654  67.458  14.561  0.00  0.00    +0.130 C 
ATOM     13  O1  CHE B   08     19.128  66.825  15.591  0.00  0.00    -0.468 OA
ATOM     14  C23 CHE B   08     18.824  68.488  11.868  0.00  0.00    +0.395 C 
ATOM     15  O2  CHE B   08     20.871  67.898  14.358  0.00  0.00    -0.333 OA
ATOM     16  C24 CHE B   08     21.117  67.543  15.261  0.00  0.00    +0.191 C 
ATOM     17  C25 CHE B   08     21.666  68.628  13.283  0.00  0.00    +0.077 C 
ENDBRANCH   6   9
BRANCH   1  23
ATOM     18  C1  CHE B   08     22.963  65.019  15.819  0.00  0.00    +0.065 C 
ATOM     19  C2  CHE B   08     23.040  67.155  11.072  0.00  0.00    +0.039 A 
ATOM     20  C3  CHE B   08     22.855  67.616  11.124  0.00  0.00    +0.023 A 
ATOM     21  C4  CHE B   08     22.477  69.022  10.284  0.00  0.00    +0.004 A 
ATOM     22  C5  CHE B   08     21.310  68.672  17.227  0.00  0.00    +0.030 A 
ATOM     23  C6  CHE B   08     21.998  68.820  13.254  0.00  0.00    +0.090 A 
ATOM     24  N4  CHE B   08     22.855  68.080  10.179  0.00  0.00    -0.250 NA
ENDBRANCH   1  23
BRANCH   4  25
ATOM     25  C9  CHE B   08     26.966  70.601  13.529  0.00  0.00    +0.139 C 
BRANCH  25  26
ATOM     26  C10 CHE B   08     27.363  71.790  14.599  0.00  0.00    -0.030 A 
ATOM     27  C11 CHE B   08     27.632  72.053  13.628  0.00  0.00    +0.006 A 
ATOM     28  C12 CHE B   08     28.574  73.140  10.735  0.00  0.00    +0.017 A 
ATOM     29  C13 CHE B   08     28.222  73.987  15.737  0.00  0.00    +0.025 A 
ATOM     30  C16 CHE B   08     27.950  73.715  16.708  0.00  0.00    +0.017 A 
ATOM     31  C17 CHE B   08     28.341  72.632  10.700  0.00  0.00    +0.006 A 
BRANCH  29  32
ATOM     32  C14 CHE B   08     29.776  75.117   8.891  0.00  0.00    -0.070 C 
ATOM     33  C15 CHE B   08     30.069  76.069   9.945  0.00  0.00    +0.009 C 
ENDBRANCH  29  32
ENDBRANCH  25  26
ENDBRANCH   4  25
TORSDOF 5
ENDMDL
MODEL 9
REMARK VINA RESULT:      -7.8      2.577      5.212
REMARK  Name = dock_mp/CHEMBL5/CHEMBL566877.pdb
REMARK  6 active torsions:
REMARK  status: ('A' for Active; 'I' for Inactive)
REMARK    1  A    between atoms: C1_1  and  C2_2
REMARK    2  A    between atoms: C6_6  and  C7_7
REMARK    3  A    between atoms: N2_10  and  C9_11
REMARK    4  A    between atoms: C9_11  and  C10_12
REMARK    5  A    between atoms: C13_15  and  C14_16
REMARK    6  A    between atoms: C18_21  and  C19_22
REMARK                            x       y       z     vdW  Elec       q    Type
REMARK                         _______ _______ _______ _____ _____    ______ ____
ROOT
ATOM      1  C7  CHE B   08     25.850  68.170   6.972  0.00  0.00    +0.093 A 
ATOM      2  N1  CHE B   08     23.254  68.072   8.985  0.00  0.00    -0.324 N 
ATOM      3  C8  CHE B   08     22.744  68.215   8.726  0.00  0.00    +0.194 A 
ATOM      4  N2  CHE B   08     20.131  68.122  10.729  0.00  0.00    -0.311 N 
ATOM      5  N3  CHE B   08     22.626  67.696  10.884  0.00  0.00    -0.214 NA
ATOM      6  C18 CHE B   08     26.554  68.248   6.220  0.00  0.00    +0.096 A 
ATOM      7  H7  CHE B   08     25.181  68.910   4.415  0.00  0.00    +0.169 HD
ATOM      8  H8  CHE B   08     19.393  68.054  11.464  0.00  0.00    +0.149 HD
ENDROOT
BRANCH   6   9
ATOM      9  C19 CHE B   08     26.156  67.532   9.345  0.00  0.00    -0.017 C 
ATOM     10  C20 CHE B   08     27.662  67.433   9.008  0.00  0.00    +0.009 C 
ATOM     11  C21 CHE B   08     28.216  67.026  10.402  0.00  0.00    +0.044 C 
ATOM     12  C22 CHE B   08     27.186  66.736  12.093  0.00  0.00    +0.130 C 
ATOM     13  O1  CHE B   08     27.453  66.399  13.340  0.00  0.00    -0.468 OA
ATOM     14  C23 CHE B   08     28.636  67.194   9.507  0.00  0.00    +0.395 C 
ATOM     15  O2  CHE B   08     26.047  67.016  11.509  0.00  0.00    -0.333 OA
ATOM     16  C24 CHE B   08     25.593  66.856  12.386  0.00  0.00    +0.191 C 
ATOM     17  C25 CHE B   08     25.528  67.415  10.133  0.00  0.00    +0.077 C 
ENDBRANCH   6   9
BRANCH   1  23
ATOM     18  C1  CHE B   08     24.578  69.219  14.295  0.00  0.00    +0.065 C 
ATOM     19  C2  CHE B   08     25.659  70.353   9.330  0.00  0.00    +0.039 A 
ATOM     20  C3  CHE B   08     25.655  69.918   9.084  0.00  0.00    +0.023 A 
ATOM     21  C4  CHE B   08     25.861  69.223   7.569  0.00  0.00    +0.004 A 
ATOM     22  C5  CHE B   08     24.320  65.147  13.110  0.00  0.00    +0.030 A 
ATOM     23  C6  CHE B   08     25.201  67.524   9.971  0.00  0.00    +0.090 A 
ATOM     24  N4  CHE B   08     25.871  70.110   8.071  0.00  0.00    -0.250 NA
ENDBRANCH   1  23
BRANCH   4  25
ATOM     25  C9  CHE B   08     20.232  68.646   8.562  0.00  0.00    +0.139 C 
BRANCH  25  26
ATOM     26  C10 CHE B   08     18.606  68.474   8.770  0.00  0.00    -0.030 A 
ATOM     27  C11 CHE B   08     18.845  68.607   7.765  0.00  0.00    +0.006 A 
ATOM     28  C12 CHE B   08     19.277  68.999   4.587  0.00  0.00    +0.017 A 
ATOM     29  C13 CHE B   08     16.018  68.277   8.424  0.00  0.00    +0.025 A 
ATOM     30  C16 CHE B   08     15.787  68.144   9.434  0.00  0.00    +0.017 A 
ATOM     31  C17 CHE B   08     19.762  69.012   4.866  0.00  0.00    +0.006 A 
BRANCH  29  32
ATOM     32  C14 CHE B   08     18.368  69.227   1.781  0.00  0.00    -0.070 C 
ATOM     33  C15 CHE B   08     16.984  68.946   2.107  0.00  0.00    +0.009 C 
ENDBRANCH  29  32
ENDBRANCH  25  26
ENDBRANCH   4  25
TORSDOF 5
ENDMDL
