MODEL 1
REMARK VINA RESULT:     -11.3      0.000      0.000
REMARK  Name = dock_mp/CHEMBL5/CHEMBL593725.pdb
REMARK  4 active torsions:
REMARK  status: ('A' for Active; 'I' for Inactive)
REMARK    1  A    between atoms: C1_1  and  N1_2
REMARK    2  A    between atoms: C2_3  and  C3_4
REMARK    3  A    between atoms: C11_14  and  C12_15
REMARK    4  A    between atoms: N5_23  and  C18_24
REMARK                            x       y       z     vdW  Elec       q    Type
REMARK                         _______ _______ _______ _____ _____    ______ ____
ROOT
ATOM      1  C1  CHE B   07     18.636  69.031   4.401  0.00  0.00    +0.171 C 
ATOM      2  N1  CHE B   07     16.814  67.365   6.328  0.00  0.00    -0.283 N 
ATOM      3  C2  CHE B   07     17.851  68.417   4.928  0.00  0.00    +0.080 A 
ATOM      4  C11 CHE B   07     15.463  66.208   7.524  0.00  0.00    +0.092 A 
ATOM      5  C17 CHE B   07     14.600  65.922   6.960  0.00  0.00    +0.277 A 
ATOM      6  O1  CHE B   07     13.624  65.598   6.322  0.00  0.00    -0.265 OA
ATOM      7  N5  CHE B   07     16.472  67.959   4.026  0.00  0.00    -0.252 N 
ATOM      8  C18 CHE B   07     15.429  67.259   4.384  0.00  0.00    +0.174 C 
ENDROOT
BRANCH   3   9
ATOM      9  C3  CHE B   07     18.916  68.771   5.623  0.00  0.00    +0.003 A 
ATOM     10  C4  CHE B   07     22.610  70.131   1.005  0.00  0.00    +0.012 A 
ATOM     11  C5  CHE B   07     21.645  69.721   5.062  0.00  0.00    +0.030 A 
ATOM     12  C6  CHE B   07     19.921  69.060   8.624  0.00  0.00    +0.089 A 
ATOM     13  N2  CHE B   07     20.404  69.198  10.112  0.00  0.00    -0.252 NA
ATOM     14  C7  CHE B   07     25.086  70.953   2.622  0.00  0.00    +0.131 A 
ATOM     15  C8  CHE B   07     22.864  70.149   4.687  0.00  0.00    +0.131 A 
ATOM     16  N3  CHE B   07     19.421  68.894   8.297  0.00  0.00    -0.252 NA
ATOM     17  C9  CHE B   07     22.641  70.119   2.197  0.00  0.00    +0.090 A 
ATOM     18  C10 CHE B   07     21.641  69.787   1.543  0.00  0.00    +0.040 A 
ENDBRANCH   3   9
BRANCH   4  19
ATOM     19  C12 CHE B   07     17.208  68.557   3.468  0.00  0.00    +0.078 A 
ATOM     20  C13 CHE B   07     16.376  68.026   5.281  0.00  0.00    +0.028 A 
ATOM     21  C14 CHE B   07     17.798  69.827   2.000  0.00  0.00    +0.004 A 
ATOM     22  C15 CHE B   07     17.300  68.279   3.339  0.00  0.00    +0.020 A 
ATOM     23  C16 CHE B   07     18.126  68.828   1.535  0.00  0.00    +0.111 A 
ATOM     24  N4  CHE B   07     15.674  65.566   7.224  0.00  0.00    -0.255 NA
ENDBRANCH   4  19
TORSDOF 2
ENDMDL
MODEL 2
REMARK VINA RESULT:     -10.6      3.710      6.342
REMARK  Name = dock_mp/CHEMBL5/CHEMBL593725.pdb
REMARK  4 active torsions:
REMARK  status: ('A' for Active; 'I' for Inactive)
REMARK    1  A    between atoms: C1_1  and  N1_2
REMARK    2  A    between atoms: C2_3  and  C3_4
REMARK    3  A    between atoms: C11_14  and  C12_15
REMARK    4  A    between atoms: N5_23  and  C18_24
REMARK                            x       y       z     vdW  Elec       q    Type
REMARK                         _______ _______ _______ _____ _____    ______ ____
ROOT
ATOM      1  C1  CHE B   07     17.559  68.006   8.495  0.00  0.00    +0.171 C 
ATOM      2  N1  CHE B   07     18.892  68.190  11.323  0.00  0.00    -0.283 N 
ATOM      3  C2  CHE B   07     17.865  67.971   9.579  0.00  0.00    +0.080 A 
ATOM      4  C11 CHE B   07     19.673  68.238  13.319  0.00  0.00    +0.092 A 
ATOM      5  C17 CHE B   07     19.000  67.770  14.006  0.00  0.00    +0.277 A 
ATOM      6  O1  CHE B   07     18.240  67.241  14.784  0.00  0.00    -0.265 OA
ATOM      7  N5  CHE B   07     16.790  67.223  10.678  0.00  0.00    -0.252 N 
ATOM      8  C18 CHE B   07     16.895  67.048  11.968  0.00  0.00    +0.174 C 
ENDROOT
BRANCH   3   9
ATOM      9  C3  CHE B   07     18.695  68.549   8.731  0.00  0.00    +0.003 A 
ATOM     10  C4  CHE B   07     15.625  67.505   3.601  0.00  0.00    +0.012 A 
ATOM     11  C5  CHE B   07     18.839  69.013   5.827  0.00  0.00    +0.030 A 
ATOM     12  C6  CHE B   07     21.462  70.110   8.658  0.00  0.00    +0.089 A 
ATOM     13  N2  CHE B   07     22.830  70.880   8.637  0.00  0.00    -0.252 NA
ATOM     14  C7  CHE B   07     17.555  68.849   1.628  0.00  0.00    +0.131 A 
ATOM     15  C8  CHE B   07     18.798  69.167   4.491  0.00  0.00    +0.131 A 
ATOM     16  N3  CHE B   07     21.073  69.839   9.056  0.00  0.00    -0.252 NA
ATOM     17  C9  CHE B   07     16.640  68.030   3.941  0.00  0.00    +0.090 A 
ATOM     18  C10 CHE B   07     15.861  67.487   4.738  0.00  0.00    +0.040 A 
ENDBRANCH   3   9
BRANCH   4  19
ATOM     19  C12 CHE B   07     16.447  67.231   9.633  0.00  0.00    +0.078 A 
ATOM     20  C13 CHE B   07     18.003  67.265  10.988  0.00  0.00    +0.028 A 
ATOM     21  C14 CHE B   07     15.371  66.530   8.062  0.00  0.00    +0.004 A 
ATOM     22  C15 CHE B   07     16.266  67.482   9.713  0.00  0.00    +0.020 A 
ATOM     23  C16 CHE B   07     14.721  67.433   8.353  0.00  0.00    +0.111 A 
ATOM     24  N4  CHE B   07     19.255  68.820  13.505  0.00  0.00    -0.255 NA
ENDBRANCH   4  19
TORSDOF 2
ENDMDL
MODEL 3
REMARK VINA RESULT:     -10.4      3.921      7.186
REMARK  Name = dock_mp/CHEMBL5/CHEMBL593725.pdb
REMARK  4 active torsions:
REMARK  status: ('A' for Active; 'I' for Inactive)
REMARK    1  A    between atoms: C1_1  and  N1_2
REMARK    2  A    between atoms: C2_3  and  C3_4
REMARK    3  A    between atoms: C11_14  and  C12_15
REMARK    4  A    between atoms: N5_23  and  C18_24
REMARK                            x       y       z     vdW  Elec       q    Type
REMARK                         _______ _______ _______ _____ _____    ______ ____
ROOT
ATOM      1  C1  CHE B   07     19.662  69.385   4.177  0.00  0.00    +0.171 C 
ATOM      2  N1  CHE B   07     22.646  70.117   3.574  0.00  0.00    -0.283 N 
ATOM      3  C2  CHE B   07     20.679  69.629   3.757  0.00  0.00    +0.080 A 
ATOM      4  C11 CHE B   07     24.653  70.606   3.002  0.00  0.00    +0.092 A 
ATOM      5  C17 CHE B   07     24.760  70.608   1.938  0.00  0.00    +0.277 A 
ATOM      6  O1  CHE B   07     24.882  70.610   0.734  0.00  0.00    -0.265 OA
ATOM      7  N5  CHE B   07     20.850  69.632   2.055  0.00  0.00    -0.252 N 
ATOM      8  C18 CHE B   07     21.899  69.877   1.317  0.00  0.00    +0.174 C 
ENDROOT
BRANCH   3   9
ATOM      9  C3  CHE B   07     20.546  69.627   5.070  0.00  0.00    +0.003 A 
ATOM     10  C4  CHE B   07     15.013  67.160   5.424  0.00  0.00    +0.012 A 
ATOM     11  C5  CHE B   07     18.516  68.801   7.035  0.00  0.00    +0.030 A 
ATOM     12  C6  CHE B   07     22.113  70.445   7.712  0.00  0.00    +0.089 A 
ATOM     13  N2  CHE B   07     22.899  70.854   9.007  0.00  0.00    -0.252 NA
ATOM     14  C7  CHE B   07     14.706  67.155   8.479  0.00  0.00    +0.131 A 
ATOM     15  C8  CHE B   07     17.519  68.389   7.839  0.00  0.00    +0.131 A 
ATOM     16  N3  CHE B   07     22.175  70.446   7.095  0.00  0.00    -0.252 NA
ATOM     17  C9  CHE B   07     15.855  67.570   6.163  0.00  0.00    +0.090 A 
ATOM     18  C10 CHE B   07     15.979  67.572   4.929  0.00  0.00    +0.040 A 
ENDBRANCH   3   9
BRANCH   4  19
ATOM     19  C12 CHE B   07     19.839  69.388   2.416  0.00  0.00    +0.078 A 
ATOM     20  C13 CHE B   07     21.886  69.422   2.678  0.00  0.00    +0.028 A 
ATOM     21  C14 CHE B   07     18.011  68.534   2.203  0.00  0.00    +0.004 A 
ATOM     22  C15 CHE B   07     19.756  69.696   2.397  0.00  0.00    +0.020 A 
ATOM     23  C16 CHE B   07     17.714  69.643   2.135  0.00  0.00    +0.111 A 
ATOM     24  N4  CHE B   07     24.463  71.320   2.958  0.00  0.00    -0.255 NA
ENDBRANCH   4  19
TORSDOF 2
ENDMDL
MODEL 4
REMARK VINA RESULT:     -10.0      2.068      4.970
REMARK  Name = dock_mp/CHEMBL5/CHEMBL593725.pdb
REMARK  4 active torsions:
REMARK  status: ('A' for Active; 'I' for Inactive)
REMARK    1  A    between atoms: C1_1  and  N1_2
REMARK    2  A    between atoms: C2_3  and  C3_4
REMARK    3  A    between atoms: C11_14  and  C12_15
REMARK    4  A    between atoms: N5_23  and  C18_24
REMARK                            x       y       z     vdW  Elec       q    Type
REMARK                         _______ _______ _______ _____ _____    ______ ____
ROOT
ATOM      1  C1  CHE B   07     18.482  68.920   4.082  0.00  0.00    +0.171 C 
ATOM      2  N1  CHE B   07     16.704  67.267   6.062  0.00  0.00    -0.283 N 
ATOM      3  C2  CHE B   07     17.710  68.307   4.630  0.00  0.00    +0.080 A 
ATOM      4  C11 CHE B   07     15.381  66.117   7.295  0.00  0.00    +0.092 A 
ATOM      5  C17 CHE B   07     14.511  65.817   6.749  0.00  0.00    +0.277 A 
ATOM      6  O1  CHE B   07     13.528  65.477   6.132  0.00  0.00    -0.265 OA
ATOM      7  N5  CHE B   07     16.320  67.827   3.758  0.00  0.00    -0.252 N 
ATOM      8  C18 CHE B   07     15.289  67.124   4.142  0.00  0.00    +0.174 C 
ENDROOT
BRANCH   3   9
ATOM      9  C3  CHE B   07     18.783  68.678   5.303  0.00  0.00    +0.003 A 
ATOM     10  C4  CHE B   07     16.707  67.723  10.925  0.00  0.00    +0.012 A 
ATOM     11  C5  CHE B   07     19.601  68.881   8.124  0.00  0.00    +0.030 A 
ATOM     12  C6  CHE B   07     21.730  69.776   4.843  0.00  0.00    +0.089 A 
ATOM     13  N2  CHE B   07     23.184  70.318   4.600  0.00  0.00    -0.252 NA
ATOM     14  C7  CHE B   07     19.203  68.586  12.490  0.00  0.00    +0.131 A 
ATOM     15  C8  CHE B   07     19.863  68.933   9.442  0.00  0.00    +0.131 A 
ATOM     16  N3  CHE B   07     21.226  69.602   4.527  0.00  0.00    -0.252 NA
ATOM     17  C9  CHE B   07     17.705  68.107  10.396  0.00  0.00    +0.090 A 
ATOM     18  C10 CHE B   07     16.697  67.759   9.764  0.00  0.00    +0.040 A 
ENDBRANCH   3   9
BRANCH   4  19
ATOM     19  C12 CHE B   07     17.042  68.423   3.180  0.00  0.00    +0.078 A 
ATOM     20  C13 CHE B   07     16.205  67.904   4.993  0.00  0.00    +0.028 A 
ATOM     21  C14 CHE B   07     17.567  69.671   1.669  0.00  0.00    +0.004 A 
ATOM     22  C15 CHE B   07     17.160  68.148   3.066  0.00  0.00    +0.020 A 
ATOM     23  C16 CHE B   07     17.991  68.684   1.259  0.00  0.00    +0.111 A 
ATOM     24  N4  CHE B   07     15.654  65.482   7.031  0.00  0.00    -0.255 NA
ENDBRANCH   4  19
TORSDOF 2
ENDMDL
MODEL 5
REMARK VINA RESULT:     -10.0      2.863      6.538
REMARK  Name = dock_mp/CHEMBL5/CHEMBL593725.pdb
REMARK  4 active torsions:
REMARK  status: ('A' for Active; 'I' for Inactive)
REMARK    1  A    between atoms: C1_1  and  N1_2
REMARK    2  A    between atoms: C2_3  and  C3_4
REMARK    3  A    between atoms: C11_14  and  C12_15
REMARK    4  A    between atoms: N5_23  and  C18_24
REMARK                            x       y       z     vdW  Elec       q    Type
REMARK                         _______ _______ _______ _____ _____    ______ ____
ROOT
ATOM      1  C1  CHE B   07     17.773  67.913   7.196  0.00  0.00    +0.171 C 
ATOM      2  N1  CHE B   07     17.957  68.957   4.249  0.00  0.00    -0.283 N 
ATOM      3  C2  CHE B   07     17.648  68.202   6.114  0.00  0.00    +0.080 A 
ATOM      4  C11 CHE B   07     17.935  69.606   2.206  0.00  0.00    +0.092 A 
ATOM      5  C17 CHE B   07     17.027  69.317   1.721  0.00  0.00    +0.277 A 
ATOM      6  O1  CHE B   07     16.000  68.990   1.171  0.00  0.00    -0.265 OA
ATOM      7  N5  CHE B   07     16.196  67.739   5.337  0.00  0.00    -0.252 N 
ATOM      8  C18 CHE B   07     15.799  67.941   4.110  0.00  0.00    +0.174 C 
ENDROOT
BRANCH   3   9
ATOM      9  C3  CHE B   07     18.768  68.559   6.713  0.00  0.00    +0.003 A 
ATOM     10  C4  CHE B   07     17.179  67.307  12.434  0.00  0.00    +0.012 A 
ATOM     11  C5  CHE B   07     19.815  68.644   9.463  0.00  0.00    +0.030 A 
ATOM     12  C6  CHE B   07     21.653  69.726   6.065  0.00  0.00    +0.089 A 
ATOM     13  N2  CHE B   07     23.073  70.303   5.730  0.00  0.00    -0.252 NA
ATOM     14  C7  CHE B   07     19.785  68.137  13.828  0.00  0.00    +0.131 A 
ATOM     15  C8  CHE B   07     20.185  68.637  10.757  0.00  0.00    +0.131 A 
ATOM     16  N3  CHE B   07     21.126  69.558   5.784  0.00  0.00    -0.252 NA
ATOM     17  C9  CHE B   07     18.125  67.732  11.845  0.00  0.00    +0.090 A 
ATOM     18  C10 CHE B   07     17.072  67.397  11.282  0.00  0.00    +0.040 A 
ENDBRANCH   3   9
BRANCH   4  19
ATOM     19  C12 CHE B   07     16.271  67.435   6.392  0.00  0.00    +0.078 A 
ATOM     20  C13 CHE B   07     17.197  67.926   4.614  0.00  0.00    +0.028 A 
ATOM     21  C14 CHE B   07     15.815  66.261   7.983  0.00  0.00    +0.004 A 
ATOM     22  C15 CHE B   07     16.094  67.692   6.463  0.00  0.00    +0.020 A 
ATOM     23  C16 CHE B   07     15.179  67.184   8.237  0.00  0.00    +0.111 A 
ATOM     24  N4  CHE B   07     17.526  70.201   2.370  0.00  0.00    -0.255 NA
ENDBRANCH   4  19
TORSDOF 2
ENDMDL
MODEL 6
REMARK VINA RESULT:      -9.9      3.102      5.839
REMARK  Name = dock_mp/CHEMBL5/CHEMBL593725.pdb
REMARK  4 active torsions:
REMARK  status: ('A' for Active; 'I' for Inactive)
REMARK    1  A    between atoms: C1_1  and  N1_2
REMARK    2  A    between atoms: C2_3  and  C3_4
REMARK    3  A    between atoms: C11_14  and  C12_15
REMARK    4  A    between atoms: N5_23  and  C18_24
REMARK                            x       y       z     vdW  Elec       q    Type
REMARK                         _______ _______ _______ _____ _____    ______ ____
ROOT
ATOM      1  C1  CHE B   07     19.753  68.504   6.476  0.00  0.00    +0.171 C 
ATOM      2  N1  CHE B   07     18.519  69.058   3.651  0.00  0.00    -0.283 N 
ATOM      3  C2  CHE B   07     19.132  68.623   5.543  0.00  0.00    +0.080 A 
ATOM      4  C11 CHE B   07     17.534  69.376   1.774  0.00  0.00    +0.092 A 
ATOM      5  C17 CHE B   07     16.514  69.057   1.817  0.00  0.00    +0.277 A 
ATOM      6  O1  CHE B   07     15.360  68.697   1.865  0.00  0.00    -0.265 OA
ATOM      7  N5  CHE B   07     17.501  68.113   5.611  0.00  0.00    -0.252 N 
ATOM      8  C18 CHE B   07     16.574  68.137   4.690  0.00  0.00    +0.174 C 
ENDROOT
BRANCH   3   9
ATOM      9  C3  CHE B   07     20.390  69.017   5.491  0.00  0.00    +0.003 A 
ATOM     10  C4  CHE B   07     21.398  69.635  11.443  0.00  0.00    +0.012 A 
ATOM     11  C5  CHE B   07     22.497  69.777   7.402  0.00  0.00    +0.030 A 
ATOM     12  C6  CHE B   07     22.699  69.638   3.397  0.00  0.00    +0.089 A 
ATOM     13  N2  CHE B   07     23.830  69.941   2.351  0.00  0.00    -0.252 NA
ATOM     14  C7  CHE B   07     24.326  70.550  11.322  0.00  0.00    +0.131 A 
ATOM     15  C8  CHE B   07     23.379  70.103   8.364  0.00  0.00    +0.131 A 
ATOM     16  N3  CHE B   07     22.108  69.453   3.422  0.00  0.00    -0.252 NA
ATOM     17  C9  CHE B   07     21.995  69.771  10.420  0.00  0.00    +0.090 A 
ATOM     18  C10 CHE B   07     20.812  69.401  10.469  0.00  0.00    +0.040 A 
ENDBRANCH   3   9
BRANCH   4  19
ATOM     19  C12 CHE B   07     18.065  67.977   6.546  0.00  0.00    +0.078 A 
ATOM     20  C13 CHE B   07     18.049  68.136   4.488  0.00  0.00    +0.028 A 
ATOM     21  C14 CHE B   07     18.435  67.093   8.334  0.00  0.00    +0.004 A 
ATOM     22  C15 CHE B   07     17.931  68.249   6.648  0.00  0.00    +0.020 A 
ATOM     23  C16 CHE B   07     17.955  68.072   8.699  0.00  0.00    +0.111 A 
ATOM     24  N4  CHE B   07     17.225  70.007   2.009  0.00  0.00    -0.255 NA
ENDBRANCH   4  19
TORSDOF 2
ENDMDL
MODEL 7
REMARK VINA RESULT:      -9.8      3.009      7.269
REMARK  Name = dock_mp/CHEMBL5/CHEMBL593725.pdb
REMARK  4 active torsions:
REMARK  status: ('A' for Active; 'I' for Inactive)
REMARK    1  A    between atoms: C1_1  and  N1_2
REMARK    2  A    between atoms: C2_3  and  C3_4
REMARK    3  A    between atoms: C11_14  and  C12_15
REMARK    4  A    between atoms: N5_23  and  C18_24
REMARK                            x       y       z     vdW  Elec       q    Type
REMARK                         _______ _______ _______ _____ _____    ______ ____
ROOT
ATOM      1  C1  CHE B   07     18.576  68.036   7.405  0.00  0.00    +0.171 C 
ATOM      2  N1  CHE B   07     17.653  68.257   4.420  0.00  0.00    -0.283 N 
ATOM      3  C2  CHE B   07     18.427  68.217   6.302  0.00  0.00    +0.080 A 
ATOM      4  C11 CHE B   07     17.162  68.488   2.347  0.00  0.00    +0.092 A 
ATOM      5  C17 CHE B   07     17.935  69.010   1.824  0.00  0.00    +0.277 A 
ATOM      6  O1  CHE B   07     18.810  69.601   1.232  0.00  0.00    -0.265 OA
ATOM      7  N5  CHE B   07     19.664  69.052   5.467  0.00  0.00    -0.252 N 
ATOM      8  C18 CHE B   07     19.747  69.390   4.208  0.00  0.00    +0.174 C 
ENDROOT
BRANCH   3   9
ATOM      9  C3  CHE B   07     17.473  67.572   6.947  0.00  0.00    +0.003 A 
ATOM     10  C4  CHE B   07     19.436  68.477  12.618  0.00  0.00    +0.012 A 
ATOM     11  C5  CHE B   07     16.785  66.967   9.745  0.00  0.00    +0.030 A 
ATOM     12  C6  CHE B   07     14.813  65.917   6.412  0.00  0.00    +0.089 A 
ATOM     13  N2  CHE B   07     13.502  65.101   6.133  0.00  0.00    -0.252 NA
ATOM     14  C7  CHE B   07     17.217  66.978  14.118  0.00  0.00    +0.131 A 
ATOM     15  C8  CHE B   07     16.571  66.753  11.056  0.00  0.00    +0.131 A 
ATOM     16  N3  CHE B   07     15.262  66.219   6.109  0.00  0.00    -0.252 NA
ATOM     17  C9  CHE B   07     18.529  67.935  12.065  0.00  0.00    +0.090 A 
ATOM     18  C10 CHE B   07     19.426  68.540  11.459  0.00  0.00    +0.040 A 
ENDBRANCH   3   9
BRANCH   4  19
ATOM     19  C12 CHE B   07     19.855  68.900   6.540  0.00  0.00    +0.078 A 
ATOM     20  C13 CHE B   07     18.952  68.306   4.781  0.00  0.00    +0.028 A 
ATOM     21  C14 CHE B   07     21.074  68.718   8.152  0.00  0.00    +0.004 A 
ATOM     22  C15 CHE B   07     19.737  69.192   6.595  0.00  0.00    +0.020 A 
ATOM     23  C16 CHE B   07     20.647  69.768   8.350  0.00  0.00    +0.111 A 
ATOM     24  N4  CHE B   07     16.887  69.163   2.474  0.00  0.00    -0.255 NA
ENDBRANCH   4  19
TORSDOF 2
ENDMDL
MODEL 8
REMARK VINA RESULT:      -9.8      2.872      5.642
REMARK  Name = dock_mp/CHEMBL5/CHEMBL593725.pdb
REMARK  4 active torsions:
REMARK  status: ('A' for Active; 'I' for Inactive)
REMARK    1  A    between atoms: C1_1  and  N1_2
REMARK    2  A    between atoms: C2_3  and  C3_4
REMARK    3  A    between atoms: C11_14  and  C12_15
REMARK    4  A    between atoms: N5_23  and  C18_24
REMARK                            x       y       z     vdW  Elec       q    Type
REMARK                         _______ _______ _______ _____ _____    ______ ____
ROOT
ATOM      1  C1  CHE B   07     17.962  68.213   8.008  0.00  0.00    +0.171 C 
ATOM      2  N1  CHE B   07     16.215  66.922   5.751  0.00  0.00    -0.283 N 
ATOM      3  C2  CHE B   07     17.212  67.681   7.356  0.00  0.00    +0.080 A 
ATOM      4  C11 CHE B   07     14.920  65.984   4.324  0.00  0.00    +0.092 A 
ATOM      5  C17 CHE B   07     14.106  65.488   4.811  0.00  0.00    +0.277 A 
ATOM      6  O1  CHE B   07     13.186  64.928   5.361  0.00  0.00    -0.265 OA
ATOM      7  N5  CHE B   07     15.911  66.889   8.134  0.00  0.00    -0.252 N 
ATOM      8  C18 CHE B   07     14.918  66.209   7.627  0.00  0.00    +0.174 C 
ENDROOT
BRANCH   3   9
ATOM      9  C3  CHE B   07     18.216  68.292   6.756  0.00  0.00    +0.003 A 
ATOM     10  C4  CHE B   07     21.564  69.567  11.654  0.00  0.00    +0.012 A 
ATOM     11  C5  CHE B   07     20.745  69.577   7.544  0.00  0.00    +0.030 A 
ATOM     12  C6  CHE B   07     19.210  69.151   3.862  0.00  0.00    +0.089 A 
ATOM     13  N2  CHE B   07     19.688  69.569   2.426  0.00  0.00    -0.252 NA
ATOM     14  C7  CHE B   07     23.900  70.989  10.257  0.00  0.00    +0.131 A 
ATOM     15  C8  CHE B   07     21.872  70.136   8.020  0.00  0.00    +0.131 A 
ATOM     16  N3  CHE B   07     18.738  68.864   4.144  0.00  0.00    -0.252 NA
ATOM     17  C9  CHE B   07     21.616  69.726  10.473  0.00  0.00    +0.090 A 
ATOM     18  C10 CHE B   07     20.673  69.152  11.037  0.00  0.00    +0.040 A 
ENDBRANCH   3   9
BRANCH   4  19
ATOM     19  C12 CHE B   07     16.615  67.393   8.813  0.00  0.00    +0.078 A 
ATOM     20  C13 CHE B   07     15.743  67.251   6.948  0.00  0.00    +0.028 A 
ATOM     21  C14 CHE B   07     17.136  68.298  10.553  0.00  0.00    +0.004 A 
ATOM     22  C15 CHE B   07     16.747  67.105   8.861  0.00  0.00    +0.020 A 
ATOM     23  C16 CHE B   07     17.611  67.265  10.723  0.00  0.00    +0.111 A 
ATOM     24  N4  CHE B   07     15.226  65.319   4.434  0.00  0.00    -0.255 NA
ENDBRANCH   4  19
TORSDOF 2
ENDMDL
MODEL 9
REMARK VINA RESULT:      -9.6      2.876      4.833
REMARK  Name = dock_mp/CHEMBL5/CHEMBL593725.pdb
REMARK  4 active torsions:
REMARK  status: ('A' for Active; 'I' for Inactive)
REMARK    1  A    between atoms: C1_1  and  N1_2
REMARK    2  A    between atoms: C2_3  and  C3_4
REMARK    3  A    between atoms: C11_14  and  C12_15
REMARK    4  A    between atoms: N5_23  and  C18_24
REMARK                            x       y       z     vdW  Elec       q    Type
REMARK                         _______ _______ _______ _____ _____    ______ ____
ROOT
ATOM      1  C1  CHE B   07     19.325  68.931   4.348  0.00  0.00    +0.171 C 
ATOM      2  N1  CHE B   07     18.834  67.759   7.211  0.00  0.00    -0.283 N 
ATOM      3  C2  CHE B   07     18.954  68.467   5.306  0.00  0.00    +0.080 A 
ATOM      4  C11 CHE B   07     18.346  66.921   9.122  0.00  0.00    +0.092 A 
ATOM      5  C17 CHE B   07     17.339  66.561   9.138  0.00  0.00    +0.277 A 
ATOM      6  O1  CHE B   07     16.199  66.153   9.156  0.00  0.00    -0.265 OA
ATOM      7  N5  CHE B   07     17.344  67.891   5.331  0.00  0.00    -0.252 N 
ATOM      8  C18 CHE B   07     16.672  67.318   6.294  0.00  0.00    +0.174 C 
ENDROOT
BRANCH   3   9
ATOM      9  C3  CHE B   07     20.197  68.911   5.286  0.00  0.00    +0.003 A 
ATOM     10  C4  CHE B   07     21.011  69.602  11.260  0.00  0.00    +0.012 A 
ATOM     11  C5  CHE B   07     22.216  69.767   7.250  0.00  0.00    +0.030 A 
ATOM     12  C6  CHE B   07     22.537  69.614   3.253  0.00  0.00    +0.089 A 
ATOM     13  N2  CHE B   07     23.683  69.958   2.237  0.00  0.00    -0.252 NA
ATOM     14  C7  CHE B   07     23.902  70.636  11.214  0.00  0.00    +0.131 A 
ATOM     15  C8  CHE B   07     23.057  70.134   8.234  0.00  0.00    +0.131 A 
ATOM     16  N3  CHE B   07     21.953  69.406   3.263  0.00  0.00    -0.252 NA
ATOM     17  C9  CHE B   07     21.630  69.757  10.252  0.00  0.00    +0.090 A 
ATOM     18  C10 CHE B   07     20.463  69.339  10.271  0.00  0.00    +0.040 A 
ENDBRANCH   3   9
BRANCH   4  19
ATOM     19  C12 CHE B   07     17.659  68.335   4.375  0.00  0.00    +0.078 A 
ATOM     20  C13 CHE B   07     17.806  68.194   6.429  0.00  0.00    +0.028 A 
ATOM     21  C14 CHE B   07     17.280  69.245   2.601  0.00  0.00    +0.004 A 
ATOM     22  C15 CHE B   07     17.746  68.046   4.269  0.00  0.00    +0.020 A 
ATOM     23  C16 CHE B   07     17.593  68.205   2.222  0.00  0.00    +0.111 A 
ATOM     24  N4  CHE B   07     18.547  66.252   8.878  0.00  0.00    -0.255 NA
ENDBRANCH   4  19
TORSDOF 2
ENDMDL
MODEL 10
REMARK VINA RESULT:      -9.6      1.814      3.788
REMARK  Name = dock_mp/CHEMBL5/CHEMBL593725.pdb
REMARK  4 active torsions:
REMARK  status: ('A' for Active; 'I' for Inactive)
REMARK    1  A    between atoms: C1_1  and  N1_2
REMARK    2  A    between atoms: C2_3  and  C3_4
REMARK    3  A    between atoms: C11_14  and  C12_15
REMARK    4  A    between atoms: N5_23  and  C18_24
REMARK                            x       y       z     vdW  Elec       q    Type
REMARK                         _______ _______ _______ _____ _____    ______ ____
ROOT
ATOM      1  C1  CHE B   07     18.408  68.266   7.122  0.00  0.00    +0.171 C 
ATOM      2  N1  CHE B   07     18.249  69.176   4.129  0.00  0.00    -0.283 N 
ATOM      3  C2  CHE B   07     18.165  68.492   6.045  0.00  0.00    +0.080 A 
ATOM      4  C11 CHE B   07     17.996  69.723   2.073  0.00  0.00    +0.092 A 
ATOM      5  C17 CHE B   07     17.071  69.349   1.686  0.00  0.00    +0.277 A 
ATOM      6  O1  CHE B   07     16.026  68.925   1.249  0.00  0.00    -0.265 OA
ATOM      7  N5  CHE B   07     16.687  67.894   5.427  0.00  0.00    -0.252 N 
ATOM      8  C18 CHE B   07     16.167  68.008   4.235  0.00  0.00    +0.174 C 
ENDROOT
BRANCH   3   9
ATOM      9  C3  CHE B   07     19.305  68.954   6.522  0.00  0.00    +0.003 A 
ATOM     10  C4  CHE B   07     22.169  69.915   1.259  0.00  0.00    +0.012 A 
ATOM     11  C5  CHE B   07     21.865  69.924   5.438  0.00  0.00    +0.030 A 
ATOM     12  C6  CHE B   07     20.748  69.605   9.279  0.00  0.00    +0.089 A 
ATOM     13  N2  CHE B   07     21.447  69.921  10.648  0.00  0.00    -0.252 NA
ATOM     14  C7  CHE B   07     24.823  70.990   2.368  0.00  0.00    +0.131 A 
ATOM     15  C8  CHE B   07     22.989  70.347   4.832  0.00  0.00    +0.131 A 
ATOM     16  N3  CHE B   07     20.212  69.388   9.055  0.00  0.00    -0.252 NA
ATOM     17  C9  CHE B   07     22.385  70.036   2.426  0.00  0.00    +0.090 A 
ATOM     18  C10 CHE B   07     21.313  69.602   1.978  0.00  0.00    +0.040 A 
ENDBRANCH   3   9
BRANCH   4  19
ATOM     19  C12 CHE B   07     16.878  67.647   6.483  0.00  0.00    +0.078 A 
ATOM     20  C13 CHE B   07     17.579  68.102   4.596  0.00  0.00    +0.028 A 
ATOM     21  C14 CHE B   07     16.636  66.512   8.147  0.00  0.00    +0.004 A 
ATOM     22  C15 CHE B   07     16.705  67.903   6.567  0.00  0.00    +0.020 A 
ATOM     23  C16 CHE B   07     16.014  67.432   8.449  0.00  0.00    +0.111 A 
ATOM     24  N4  CHE B   07     17.596  70.315   2.267  0.00  0.00    -0.255 NA
ENDBRANCH   4  19
TORSDOF 2
ENDMDL
