MODEL 1
REMARK VINA RESULT:      -9.2      0.000      0.000
REMARK  Name = dock_mp/CHEMBL5/CHEMBL565846.pdb
REMARK  7 active torsions:
REMARK  status: ('A' for Active; 'I' for Inactive)
REMARK    1  A    between atoms: C1_1  and  C2_2
REMARK    2  A    between atoms: C6_6  and  C7_7
REMARK    3  A    between atoms: C8_9  and  C9_10
REMARK    4  A    between atoms: C9_10  and  N2_11
REMARK    5  A    between atoms: N2_11  and  C10_12
REMARK    6  A    between atoms: C13_15  and  C14_16
REMARK    7  A    between atoms: C17_21  and  C18_22
REMARK                            x       y       z     vdW  Elec       q    Type
REMARK                         _______ _______ _______ _____ _____    ______ ____
ROOT
ATOM      1  C7  CHE B   08     24.063  68.795   8.178  0.00  0.00    +0.092 A 
ATOM      2  N1  CHE B   08     20.855  68.571  14.525  0.00  0.00    -0.339 N 
ATOM      3  C8  CHE B   08     21.636  69.298   9.583  0.00  0.00    +0.125 A 
ATOM      4  N4  CHE B   08     20.635  68.449  15.497  0.00  0.00    -0.231 NA
ATOM      5  C17 CHE B   08     22.071  68.114  14.854  0.00  0.00    +0.094 A 
ATOM      6  H7  CHE B   08     21.917  69.192   9.659  0.00  0.00    +0.167 HD
ENDROOT
BRANCH   5   7
ATOM      7  C18 CHE B   08     25.409  68.495   7.510  0.00  0.00    -0.017 C 
ATOM      8  C19 CHE B   08     24.515  66.758  11.195  0.00  0.00    +0.009 C 
ATOM      9  C20 CHE B   08     23.928  65.290  13.960  0.00  0.00    +0.044 C 
ATOM     10  C21 CHE B   08     26.318  66.680   7.526  0.00  0.00    +0.130 C 
ATOM     11  O1  CHE B   08     26.294  65.848   8.450  0.00  0.00    -0.468 OA
ATOM     12  C22 CHE B   08     25.140  66.392  10.281  0.00  0.00    +0.395 C 
ATOM     13  O2  CHE B   08     24.219  67.348  11.190  0.00  0.00    -0.333 OA
ATOM     14  C23 CHE B   08     25.034  67.483   9.354  0.00  0.00    +0.191 C 
ATOM     15  C24 CHE B   08     22.416  67.426  14.860  0.00  0.00    +0.077 C 
ENDBRANCH   5   7
BRANCH   1  21
ATOM     16  C1  CHE B   08     24.826  68.509   8.384  0.00  0.00    +0.065 C 
ATOM     17  C2  CHE B   08     25.857  70.177   9.045  0.00  0.00    +0.039 A 
ATOM     18  C3  CHE B   08     27.019  69.741   9.359  0.00  0.00    +0.023 A 
ATOM     19  C4  CHE B   08     28.811  74.205  10.800  0.00  0.00    +0.004 A 
ATOM     20  C5  CHE B   08     27.214  71.722   9.794  0.00  0.00    +0.030 A 
ATOM     21  C6  CHE B   08     24.971  68.455   8.423  0.00  0.00    +0.089 A 
ATOM     22  N5  CHE B   08     24.874  69.518   8.588  0.00  0.00    -0.250 NA
ENDBRANCH   1  21
BRANCH   3  23
ATOM     23  C9  CHE B   08     21.197  70.074   6.373  0.00  0.00    +0.175 C 
BRANCH  23  24
ATOM     24  N2  CHE B   08     18.951  68.925  10.749  0.00  0.00    -0.337 N 
ATOM     25  H10 CHE B   08     19.659  69.346  10.000  0.00  0.00    +0.147 HD
BRANCH  24  26
ATOM     26  C10 CHE B   08     18.896  68.580   7.440  0.00  0.00    +0.028 A 
ATOM     27  C11 CHE B   08     19.041  68.497   5.324  0.00  0.00    +0.024 A 
ATOM     28  C12 CHE B   08     17.377  67.360   6.683  0.00  0.00    +0.020 A 
ATOM     29  C13 CHE B   08     16.560  66.804   7.369  0.00  0.00    +0.052 A 
ATOM     30  C15 CHE B   08     16.084  66.722  10.414  0.00  0.00    +0.020 A 
ATOM     31  C16 CHE B   08     18.402  68.183   7.194  0.00  0.00    +0.024 A 
BRANCH  29  32
ATOM     32  C14 CHE B   08     15.521  65.969   6.851  0.00  0.00    +0.099 C 
ATOM     33  N3  CHE B   08     14.030  62.763  11.833  0.00  0.00    -0.191 NA
ENDBRANCH  29  32
ENDBRANCH  24  26
ENDBRANCH  23  24
ENDBRANCH   3  23
TORSDOF 6
ENDMDL
MODEL 2
REMARK VINA RESULT:      -9.1      1.856      2.354
REMARK  Name = dock_mp/CHEMBL5/CHEMBL565846.pdb
REMARK  7 active torsions:
REMARK  status: ('A' for Active; 'I' for Inactive)
REMARK    1  A    between atoms: C1_1  and  C2_2
REMARK    2  A    between atoms: C6_6  and  C7_7
REMARK    3  A    between atoms: C8_9  and  C9_10
REMARK    4  A    between atoms: C9_10  and  N2_11
REMARK    5  A    between atoms: N2_11  and  C10_12
REMARK    6  A    between atoms: C13_15  and  C14_16
REMARK    7  A    between atoms: C17_21  and  C18_22
REMARK                            x       y       z     vdW  Elec       q    Type
REMARK                         _______ _______ _______ _____ _____    ______ ____
ROOT
ATOM      1  C7  CHE B   08     24.020  68.843   8.583  0.00  0.00    +0.092 A 
ATOM      2  N1  CHE B   08     21.018  68.595  15.030  0.00  0.00    -0.339 N 
ATOM      3  C8  CHE B   08     21.646  69.360  10.072  0.00  0.00    +0.125 A 
ATOM      4  N4  CHE B   08     20.829  68.467  16.006  0.00  0.00    -0.231 NA
ATOM      5  C17 CHE B   08     22.239  68.122  15.314  0.00  0.00    +0.094 A 
ATOM      6  H7  CHE B   08     21.929  69.251  10.137  0.00  0.00    +0.167 HD
ENDROOT
BRANCH   5   7
ATOM      7  C18 CHE B   08     25.340  68.534   7.869  0.00  0.00    -0.017 C 
ATOM      8  C19 CHE B   08     24.541  66.770  11.563  0.00  0.00    +0.009 C 
ATOM      9  C20 CHE B   08     24.023  65.281  14.330  0.00  0.00    +0.044 C 
ATOM     10  C21 CHE B   08     26.222  66.706   7.836  0.00  0.00    +0.130 C 
ATOM     11  O1  CHE B   08     26.216  65.864   8.752  0.00  0.00    -0.468 OA
ATOM     12  C22 CHE B   08     25.130  66.405  10.625  0.00  0.00    +0.395 C 
ATOM     13  O2  CHE B   08     24.254  67.364  11.574  0.00  0.00    -0.333 OA
ATOM     14  C23 CHE B   08     25.010  67.508   9.713  0.00  0.00    +0.191 C 
ATOM     15  C24 CHE B   08     22.574  67.428  15.301  0.00  0.00    +0.077 C 
ENDBRANCH   5   7
BRANCH   1  21
ATOM     16  C1  CHE B   08     24.786  68.547   8.761  0.00  0.00    +0.065 C 
ATOM     17  C2  CHE B   08     25.863  70.200   9.383  0.00  0.00    +0.039 A 
ATOM     18  C3  CHE B   08     27.030  69.748   9.654  0.00  0.00    +0.023 A 
ATOM     19  C4  CHE B   08     28.935  74.187  11.025  0.00  0.00    +0.004 A 
ATOM     20  C5  CHE B   08     27.269  71.726  10.081  0.00  0.00    +0.030 A 
ATOM     21  C6  CHE B   08     24.932  68.490   8.795  0.00  0.00    +0.089 A 
ATOM     22  N5  CHE B   08     24.855  69.555   8.963  0.00  0.00    -0.250 NA
ENDBRANCH   1  21
BRANCH   3  23
ATOM     23  C9  CHE B   08     21.112  70.172   6.885  0.00  0.00    +0.175 C 
BRANCH  23  24
ATOM     24  N2  CHE B   08     19.362  67.699  10.927  0.00  0.00    -0.337 N 
ATOM     25  H10 CHE B   08     19.884  68.443  10.284  0.00  0.00    +0.147 HD
BRANCH  24  26
ATOM     26  C10 CHE B   08     19.479  67.831   7.604  0.00  0.00    +0.028 A 
ATOM     27  C11 CHE B   08     19.767  67.985   5.507  0.00  0.00    +0.024 A 
ATOM     28  C12 CHE B   08     17.722  67.280   6.614  0.00  0.00    +0.020 A 
ATOM     29  C13 CHE B   08     16.717  66.933   7.177  0.00  0.00    +0.052 A 
ATOM     30  C15 CHE B   08     15.986  66.608  10.155  0.00  0.00    +0.020 A 
ATOM     31  C16 CHE B   08     18.907  67.652   7.282  0.00  0.00    +0.024 A 
BRANCH  29  32
ATOM     32  C14 CHE B   08     15.515  66.556   6.500  0.00  0.00    +0.099 C 
ATOM     33  N3  CHE B   08     16.132  69.635   1.261  0.00  0.00    -0.191 NA
ENDBRANCH  29  32
ENDBRANCH  24  26
ENDBRANCH  23  24
ENDBRANCH   3  23
TORSDOF 6
ENDMDL
MODEL 3
REMARK VINA RESULT:      -8.7      3.010      5.313
REMARK  Name = dock_mp/CHEMBL5/CHEMBL565846.pdb
REMARK  7 active torsions:
REMARK  status: ('A' for Active; 'I' for Inactive)
REMARK    1  A    between atoms: C1_1  and  C2_2
REMARK    2  A    between atoms: C6_6  and  C7_7
REMARK    3  A    between atoms: C8_9  and  C9_10
REMARK    4  A    between atoms: C9_10  and  N2_11
REMARK    5  A    between atoms: N2_11  and  C10_12
REMARK    6  A    between atoms: C13_15  and  C14_16
REMARK    7  A    between atoms: C17_21  and  C18_22
REMARK                            x       y       z     vdW  Elec       q    Type
REMARK                         _______ _______ _______ _____ _____    ______ ____
ROOT
ATOM      1  C7  CHE B   08     24.196  68.708  11.373  0.00  0.00    +0.092 A 
ATOM      2  N1  CHE B   08     17.876  66.983  14.152  0.00  0.00    -0.339 N 
ATOM      3  C8  CHE B   08     21.376  69.047  11.143  0.00  0.00    +0.125 A 
ATOM      4  N4  CHE B   08     17.134  66.605  14.711  0.00  0.00    -0.231 NA
ATOM      5  C17 CHE B   08     18.693  66.313  14.977  0.00  0.00    +0.094 A 
ATOM      6  H7  CHE B   08     21.565  68.892  11.334  0.00  0.00    +0.167 HD
ENDROOT
BRANCH   5   7
ATOM      7  C18 CHE B   08     25.694  68.466  11.578  0.00  0.00    -0.017 C 
ATOM      8  C19 CHE B   08     23.058  67.757  14.730  0.00  0.00    +0.009 C 
ATOM      9  C20 CHE B   08     21.173  67.264  17.250  0.00  0.00    +0.044 C 
ATOM     10  C21 CHE B   08     26.709  68.897  13.283  0.00  0.00    +0.130 C 
ATOM     11  O1  CHE B   08     26.272  68.814  14.445  0.00  0.00    -0.468 OA
ATOM     12  C22 CHE B   08     24.164  68.124  14.694  0.00  0.00    +0.395 C 
ATOM     13  O2  CHE B   08     22.728  67.617  14.176  0.00  0.00    -0.333 OA
ATOM     14  C23 CHE B   08     24.456  68.146  13.288  0.00  0.00    +0.191 C 
ATOM     15  C24 CHE B   08     19.078  66.477  15.624  0.00  0.00    +0.077 C 
ENDBRANCH   5   7
BRANCH   1  21
ATOM     16  C1  CHE B   08     24.708  68.288  11.890  0.00  0.00    +0.065 C 
ATOM     17  C2  CHE B   08     24.988  66.450  10.982  0.00  0.00    +0.039 A 
ATOM     18  C3  CHE B   08     25.768  65.811  11.770  0.00  0.00    +0.023 A 
ATOM     19  C4  CHE B   08     25.940  61.648   8.968  0.00  0.00    +0.004 A 
ATOM     20  C5  CHE B   08     25.487  64.433  10.296  0.00  0.00    +0.030 A 
ATOM     21  C6  CHE B   08     24.806  68.209  11.989  0.00  0.00    +0.089 A 
ATOM     22  N5  CHE B   08     24.534  67.627  11.119  0.00  0.00    -0.250 NA
ENDBRANCH   1  21
BRANCH   3  23
ATOM     23  C9  CHE B   08     22.866  70.785   8.722  0.00  0.00    +0.175 C 
BRANCH  23  24
ATOM     24  N2  CHE B   08     18.588  68.600  10.285  0.00  0.00    -0.337 N 
ATOM     25  H10 CHE B   08     19.589  69.088  10.282  0.00  0.00    +0.147 HD
BRANCH  24  26
ATOM     26  C10 CHE B   08     20.369  69.634   7.671  0.00  0.00    +0.028 A 
ATOM     27  C11 CHE B   08     21.646  70.387   6.152  0.00  0.00    +0.024 A 
ATOM     28  C12 CHE B   08     19.614  69.103   5.795  0.00  0.00    +0.020 A 
ATOM     29  C13 CHE B   08     18.606  68.466   5.635  0.00  0.00    +0.052 A 
ATOM     30  C15 CHE B   08     16.562  67.246   7.594  0.00  0.00    +0.020 A 
ATOM     31  C16 CHE B   08     20.123  69.461   7.061  0.00  0.00    +0.024 A 
BRANCH  29  32
ATOM     32  C14 CHE B   08     18.090  68.103   4.352  0.00  0.00    +0.099 C 
ATOM     33  N3  CHE B   08     22.894  69.342   0.787  0.00  0.00    -0.191 NA
ENDBRANCH  29  32
ENDBRANCH  24  26
ENDBRANCH  23  24
ENDBRANCH   3  23
TORSDOF 6
ENDMDL
MODEL 4
REMARK VINA RESULT:      -8.7      2.997      4.731
REMARK  Name = dock_mp/CHEMBL5/CHEMBL565846.pdb
REMARK  7 active torsions:
REMARK  status: ('A' for Active; 'I' for Inactive)
REMARK    1  A    between atoms: C1_1  and  C2_2
REMARK    2  A    between atoms: C6_6  and  C7_7
REMARK    3  A    between atoms: C8_9  and  C9_10
REMARK    4  A    between atoms: C9_10  and  N2_11
REMARK    5  A    between atoms: N2_11  and  C10_12
REMARK    6  A    between atoms: C13_15  and  C14_16
REMARK    7  A    between atoms: C17_21  and  C18_22
REMARK                            x       y       z     vdW  Elec       q    Type
REMARK                         _______ _______ _______ _____ _____    ______ ____
ROOT
ATOM      1  C7  CHE B   08     24.432  68.372  11.389  0.00  0.00    +0.092 A 
ATOM      2  N1  CHE B   08     18.025  66.954  14.142  0.00  0.00    -0.339 N 
ATOM      3  C8  CHE B   08     21.635  68.870  11.165  0.00  0.00    +0.125 A 
ATOM      4  N4  CHE B   08     17.263  66.608  14.694  0.00  0.00    -0.231 NA
ATOM      5  C17 CHE B   08     18.803  66.227  14.955  0.00  0.00    +0.094 A 
ATOM      6  H7  CHE B   08     21.815  68.702  11.354  0.00  0.00    +0.167 HD
ENDROOT
BRANCH   5   7
ATOM      7  C18 CHE B   08     25.915  68.045  11.589  0.00  0.00    -0.017 C 
ATOM      8  C19 CHE B   08     23.250  67.401  14.732  0.00  0.00    +0.009 C 
ATOM      9  C20 CHE B   08     21.346  66.946  17.244  0.00  0.00    +0.044 C 
ATOM     10  C21 CHE B   08     26.960  68.356  13.302  0.00  0.00    +0.130 C 
ATOM     11  O1  CHE B   08     26.523  68.263  14.463  0.00  0.00    -0.468 OA
ATOM     12  C22 CHE B   08     24.377  67.699  14.701  0.00  0.00    +0.395 C 
ATOM     13  O2  CHE B   08     22.910  67.300  14.175  0.00  0.00    -0.333 OA
ATOM     14  C23 CHE B   08     24.665  67.747  13.295  0.00  0.00    +0.191 C 
ATOM     15  C24 CHE B   08     19.200  66.345  15.605  0.00  0.00    +0.077 C 
ENDBRANCH   5   7
BRANCH   1  21
ATOM     16  C1  CHE B   08     24.920  67.917  11.899  0.00  0.00    +0.065 C 
ATOM     17  C2  CHE B   08     25.115  66.088  10.951  0.00  0.00    +0.039 A 
ATOM     18  C3  CHE B   08     25.859  65.394  11.728  0.00  0.00    +0.023 A 
ATOM     19  C4  CHE B   08     25.845  61.291   8.833  0.00  0.00    +0.004 A 
ATOM     20  C5  CHE B   08     25.520  64.064  10.222  0.00  0.00    +0.030 A 
ATOM     21  C6  CHE B   08     25.013  67.830  11.996  0.00  0.00    +0.089 A 
ATOM     22  N5  CHE B   08     24.719  67.282  11.113  0.00  0.00    -0.250 NA
ENDBRANCH   1  21
BRANCH   3  23
ATOM     23  C9  CHE B   08     23.221  70.562   8.773  0.00  0.00    +0.175 C 
BRANCH  23  24
ATOM     24  N2  CHE B   08     18.822  68.613  10.312  0.00  0.00    -0.337 N 
ATOM     25  H10 CHE B   08     19.861  69.015  10.312  0.00  0.00    +0.147 HD
BRANCH  24  26
ATOM     26  C10 CHE B   08     20.601  69.720   7.727  0.00  0.00    +0.028 A 
ATOM     27  C11 CHE B   08     21.870  70.526   6.229  0.00  0.00    +0.024 A 
ATOM     28  C12 CHE B   08     19.903  69.154   5.840  0.00  0.00    +0.020 A 
ATOM     29  C13 CHE B   08     18.926  68.474   5.664  0.00  0.00    +0.052 A 
ATOM     30  C15 CHE B   08     16.903  67.169   7.590  0.00  0.00    +0.020 A 
ATOM     31  C16 CHE B   08     20.374  69.536   7.113  0.00  0.00    +0.024 A 
BRANCH  29  32
ATOM     32  C14 CHE B   08     18.448  68.087   4.373  0.00  0.00    +0.099 C 
ATOM     33  N3  CHE B   08     13.344  65.090   5.886  0.00  0.00    -0.191 NA
ENDBRANCH  29  32
ENDBRANCH  24  26
ENDBRANCH  23  24
ENDBRANCH   3  23
TORSDOF 6
ENDMDL
MODEL 5
REMARK VINA RESULT:      -8.6      2.895      5.616
REMARK  Name = dock_mp/CHEMBL5/CHEMBL565846.pdb
REMARK  7 active torsions:
REMARK  status: ('A' for Active; 'I' for Inactive)
REMARK    1  A    between atoms: C1_1  and  C2_2
REMARK    2  A    between atoms: C6_6  and  C7_7
REMARK    3  A    between atoms: C8_9  and  C9_10
REMARK    4  A    between atoms: C9_10  and  N2_11
REMARK    5  A    between atoms: N2_11  and  C10_12
REMARK    6  A    between atoms: C13_15  and  C14_16
REMARK    7  A    between atoms: C17_21  and  C18_22
REMARK                            x       y       z     vdW  Elec       q    Type
REMARK                         _______ _______ _______ _____ _____    ______ ____
ROOT
ATOM      1  C7  CHE B   08     24.963  68.517  10.077  0.00  0.00    +0.092 A 
ATOM      2  N1  CHE B   08     23.064  69.883   3.356  0.00  0.00    -0.339 N 
ATOM      3  C8  CHE B   08     22.771  69.046   8.334  0.00  0.00    +0.125 A 
ATOM      4  N4  CHE B   08     23.054  70.056   2.368  0.00  0.00    -0.231 NA
ATOM      5  C17 CHE B   08     24.392  69.771   3.214  0.00  0.00    +0.094 A 
ATOM      6  H7  CHE B   08     23.078  69.020   8.301  0.00  0.00    +0.167 HD
ENDROOT
BRANCH   5   7
ATOM      7  C18 CHE B   08     26.202  68.241  10.933  0.00  0.00    -0.017 C 
ATOM      8  C19 CHE B   08     26.497  67.791   6.798  0.00  0.00    +0.009 C 
ATOM      9  C20 CHE B   08     26.847  67.324   3.667  0.00  0.00    +0.044 C 
ATOM     10  C21 CHE B   08     27.610  66.815  10.610  0.00  0.00    +0.130 C 
ATOM     11  O1  CHE B   08     27.993  66.390   9.505  0.00  0.00    -0.468 OA
ATOM     12  C22 CHE B   08     27.044  67.275   7.689  0.00  0.00    +0.395 C 
ATOM     13  O2  CHE B   08     26.039  68.254   6.903  0.00  0.00    -0.333 OA
ATOM     14  C23 CHE B   08     26.461  67.903   8.840  0.00  0.00    +0.191 C 
ATOM     15  C24 CHE B   08     24.926  69.230   3.091  0.00  0.00    +0.077 C 
ENDBRANCH   5   7
BRANCH   1  21
ATOM     16  C1  CHE B   08     25.795  68.447   9.988  0.00  0.00    +0.065 C 
ATOM     17  C2  CHE B   08     26.507  70.386  10.115  0.00  0.00    +0.039 A 
ATOM     18  C3  CHE B   08     27.775  70.279   9.979  0.00  0.00    +0.023 A 
ATOM     19  C4  CHE B   08     28.697  75.198  10.389  0.00  0.00    +0.004 A 
ATOM     20  C5  CHE B   08     27.575  72.294  10.204  0.00  0.00    +0.030 A 
ATOM     21  C6  CHE B   08     25.953  68.434   9.971  0.00  0.00    +0.089 A 
ATOM     22  N5  CHE B   08     25.640  69.459  10.106  0.00  0.00    -0.250 NA
ENDBRANCH   1  21
BRANCH   3  23
ATOM     23  C9  CHE B   08     21.604  68.628  11.427  0.00  0.00    +0.175 C 
BRANCH  23  24
ATOM     24  N2  CHE B   08     20.662  68.119   6.490  0.00  0.00    -0.337 N 
ATOM     25  H10 CHE B   08     21.193  68.264   7.458  0.00  0.00    +0.147 HD
BRANCH  24  26
ATOM     26  C10 CHE B   08     19.372  68.195   9.557  0.00  0.00    +0.028 A 
ATOM     27  C11 CHE B   08     18.762  68.257  11.589  0.00  0.00    +0.024 A 
ATOM     28  C12 CHE B   08     17.288  68.091   9.665  0.00  0.00    +0.020 A 
ATOM     29  C13 CHE B   08     16.570  68.008   8.702  0.00  0.00    +0.052 A 
ATOM     30  C15 CHE B   08     17.131  67.897   5.672  0.00  0.00    +0.020 A 
ATOM     31  C16 CHE B   08     18.694  68.161   9.592  0.00  0.00    +0.024 A 
BRANCH  29  32
ATOM     32  C14 CHE B   08     15.144  67.937   8.775  0.00  0.00    +0.099 C 
ATOM     33  N3  CHE B   08     14.417  62.906  12.164  0.00  0.00    -0.191 NA
ENDBRANCH  29  32
ENDBRANCH  24  26
ENDBRANCH  23  24
ENDBRANCH   3  23
TORSDOF 6
ENDMDL
MODEL 6
REMARK VINA RESULT:      -8.6      3.093      6.467
REMARK  Name = dock_mp/CHEMBL5/CHEMBL565846.pdb
REMARK  7 active torsions:
REMARK  status: ('A' for Active; 'I' for Inactive)
REMARK    1  A    between atoms: C1_1  and  C2_2
REMARK    2  A    between atoms: C6_6  and  C7_7
REMARK    3  A    between atoms: C8_9  and  C9_10
REMARK    4  A    between atoms: C9_10  and  N2_11
REMARK    5  A    between atoms: N2_11  and  C10_12
REMARK    6  A    between atoms: C13_15  and  C14_16
REMARK    7  A    between atoms: C17_21  and  C18_22
REMARK                            x       y       z     vdW  Elec       q    Type
REMARK                         _______ _______ _______ _____ _____    ______ ____
ROOT
ATOM      1  C7  CHE B   08     24.414  68.224  10.009  0.00  0.00    +0.092 A 
ATOM      2  N1  CHE B   08     22.707  69.586   3.237  0.00  0.00    -0.339 N 
ATOM      3  C8  CHE B   08     22.292  68.886   8.227  0.00  0.00    +0.125 A 
ATOM      4  N4  CHE B   08     22.722  69.738   2.245  0.00  0.00    -0.231 NA
ATOM      5  C17 CHE B   08     24.024  69.367   3.114  0.00  0.00    +0.094 A 
ATOM      6  H7  CHE B   08     22.596  68.835   8.198  0.00  0.00    +0.167 HD
ENDROOT
BRANCH   5   7
ATOM      7  C18 CHE B   08     25.618  67.869  10.887  0.00  0.00    -0.017 C 
ATOM      8  C19 CHE B   08     26.279  69.541   7.124  0.00  0.00    +0.009 C 
ATOM      9  C20 CHE B   08     26.931  70.893   4.315  0.00  0.00    +0.044 C 
ATOM     10  C21 CHE B   08     27.329  68.952  11.032  0.00  0.00    +0.130 C 
ATOM     11  O1  CHE B   08     27.869  69.607  10.123  0.00  0.00    -0.468 OA
ATOM     12  C22 CHE B   08     26.868  69.600   8.129  0.00  0.00    +0.395 C 
ATOM     13  O2  CHE B   08     25.723  69.189   7.077  0.00  0.00    -0.333 OA
ATOM     14  C23 CHE B   08     26.083  68.790   9.017  0.00  0.00    +0.191 C 
ATOM     15  C24 CHE B   08     24.673  69.778   3.169  0.00  0.00    +0.077 C 
ENDBRANCH   5   7
BRANCH   1  21
ATOM     16  C1  CHE B   08     25.239  68.086   9.932  0.00  0.00    +0.065 C 
ATOM     17  C2  CHE B   08     25.411  66.047   9.628  0.00  0.00    +0.039 A 
ATOM     18  C3  CHE B   08     26.668  65.838   9.511  0.00  0.00    +0.023 A 
ATOM     19  C4  CHE B   08     26.247  60.881   8.829  0.00  0.00    +0.004 A 
ATOM     20  C5  CHE B   08     25.936  63.949   9.291  0.00  0.00    +0.030 A 
ATOM     21  C6  CHE B   08     25.397  68.060   9.918  0.00  0.00    +0.089 A 
ATOM     22  N5  CHE B   08     24.819  67.151   9.827  0.00  0.00    -0.250 NA
ENDBRANCH   1  21
BRANCH   3  23
ATOM     23  C9  CHE B   08     21.060  68.629  11.312  0.00  0.00    +0.175 C 
BRANCH  23  24
ATOM     24  N2  CHE B   08     20.294  67.702   6.406  0.00  0.00    -0.337 N 
ATOM     25  H10 CHE B   08     20.791  67.927   7.377  0.00  0.00    +0.147 HD
BRANCH  24  26
ATOM     26  C10 CHE B   08     18.895  68.044   9.406  0.00  0.00    +0.028 A 
ATOM     27  C11 CHE B   08     18.210  68.302  11.398  0.00  0.00    +0.024 A 
ATOM     28  C12 CHE B   08     16.821  67.791   9.471  0.00  0.00    +0.020 A 
ATOM     29  C13 CHE B   08     16.146  67.539   8.506  0.00  0.00    +0.052 A 
ATOM     30  C15 CHE B   08     16.821  67.109   5.529  0.00  0.00    +0.020 A 
ATOM     31  C16 CHE B   08     18.220  67.962   9.427  0.00  0.00    +0.024 A 
BRANCH  29  32
ATOM     32  C14 CHE B   08     14.728  67.366   8.551  0.00  0.00    +0.099 C 
ATOM     33  N3  CHE B   08     14.251  62.788  12.568  0.00  0.00    -0.191 NA
ENDBRANCH  29  32
ENDBRANCH  24  26
ENDBRANCH  23  24
ENDBRANCH   3  23
TORSDOF 6
ENDMDL
MODEL 7
REMARK VINA RESULT:      -8.0      2.436      3.185
REMARK  Name = dock_mp/CHEMBL5/CHEMBL565846.pdb
REMARK  7 active torsions:
REMARK  status: ('A' for Active; 'I' for Inactive)
REMARK    1  A    between atoms: C1_1  and  C2_2
REMARK    2  A    between atoms: C6_6  and  C7_7
REMARK    3  A    between atoms: C8_9  and  C9_10
REMARK    4  A    between atoms: C9_10  and  N2_11
REMARK    5  A    between atoms: N2_11  and  C10_12
REMARK    6  A    between atoms: C13_15  and  C14_16
REMARK    7  A    between atoms: C17_21  and  C18_22
REMARK                            x       y       z     vdW  Elec       q    Type
REMARK                         _______ _______ _______ _____ _____    ______ ____
ROOT
ATOM      1  C7  CHE B   08     24.951  68.929   7.055  0.00  0.00    +0.092 A 
ATOM      2  N1  CHE B   08     23.168  66.001  13.291  0.00  0.00    -0.339 N 
ATOM      3  C8  CHE B   08     22.812  68.431   8.872  0.00  0.00    +0.125 A 
ATOM      4  N4  CHE B   08     23.171  65.530  14.177  0.00  0.00    -0.231 NA
ATOM      5  C17 CHE B   08     24.480  65.728  13.263  0.00  0.00    +0.094 A 
ATOM      6  H7  CHE B   08     23.116  68.368   8.865  0.00  0.00    +0.167 HD
ENDROOT
BRANCH   5   7
ATOM      7  C18 CHE B   08     26.162  69.148   6.144  0.00  0.00    -0.017 C 
ATOM      8  C19 CHE B   08     26.205  66.121   9.012  0.00  0.00    +0.009 C 
ATOM      9  C20 CHE B   08     26.331  63.710  11.090  0.00  0.00    +0.044 C 
ATOM     10  C21 CHE B   08     27.199  67.602   5.333  0.00  0.00    +0.130 C 
ATOM     11  O1  CHE B   08     27.437  66.507   5.872  0.00  0.00    -0.468 OA
ATOM     12  C22 CHE B   08     26.651  66.196   7.938  0.00  0.00    +0.395 C 
ATOM     13  O2  CHE B   08     25.867  66.623   9.276  0.00  0.00    -0.333 OA
ATOM     14  C23 CHE B   08     26.265  67.513   7.514  0.00  0.00    +0.191 C 
ATOM     15  C24 CHE B   08     24.873  65.142  12.956  0.00  0.00    +0.077 C 
ENDBRANCH   5   7
BRANCH   1  21
ATOM     16  C1  CHE B   08     25.773  68.757   7.037  0.00  0.00    +0.065 C 
ATOM     17  C2  CHE B   08     26.645  70.224   8.208  0.00  0.00    +0.039 A 
ATOM     18  C3  CHE B   08     27.898  69.963   8.181  0.00  0.00    +0.023 A 
ATOM     19  C4  CHE B   08     29.231  73.806  11.125  0.00  0.00    +0.004 A 
ATOM     20  C5  CHE B   08     27.869  71.617   9.370  0.00  0.00    +0.030 A 
ATOM     21  C6  CHE B   08     25.930  68.725   7.034  0.00  0.00    +0.089 A 
ATOM     22  N5  CHE B   08     25.705  69.596   7.633  0.00  0.00    -0.250 NA
ENDBRANCH   1  21
BRANCH   3  23
ATOM     23  C9  CHE B   08     21.620  70.093   6.241  0.00  0.00    +0.175 C 
BRANCH  23  24
ATOM     24  N2  CHE B   08     20.497  67.724  10.559  0.00  0.00    -0.337 N 
ATOM     25  H10 CHE B   08     20.949  68.426   9.822  0.00  0.00    +0.147 HD
BRANCH  24  26
ATOM     26  C10 CHE B   08     19.942  67.910   7.284  0.00  0.00    +0.028 A 
ATOM     27  C11 CHE B   08     19.812  68.037   5.169  0.00  0.00    +0.024 A 
ATOM     28  C12 CHE B   08     17.934  67.891   6.704  0.00  0.00    +0.020 A 
ATOM     29  C13 CHE B   08     17.014  67.818   7.477  0.00  0.00    +0.052 A 
ATOM     30  C15 CHE B   08     16.868  67.624  10.550  0.00  0.00    +0.020 A 
ATOM     31  C16 CHE B   08     19.289  67.904   7.095  0.00  0.00    +0.024 A 
BRANCH  29  32
ATOM     32  C14 CHE B   08     15.640  67.804   7.081  0.00  0.00    +0.099 C 
ATOM     33  N3  CHE B   08     16.106  69.597   1.259  0.00  0.00    -0.191 NA
ENDBRANCH  29  32
ENDBRANCH  24  26
ENDBRANCH  23  24
ENDBRANCH   3  23
TORSDOF 6
ENDMDL
MODEL 8
REMARK VINA RESULT:      -8.0      2.615      4.203
REMARK  Name = dock_mp/CHEMBL5/CHEMBL565846.pdb
REMARK  7 active torsions:
REMARK  status: ('A' for Active; 'I' for Inactive)
REMARK    1  A    between atoms: C1_1  and  C2_2
REMARK    2  A    between atoms: C6_6  and  C7_7
REMARK    3  A    between atoms: C8_9  and  C9_10
REMARK    4  A    between atoms: C9_10  and  N2_11
REMARK    5  A    between atoms: N2_11  and  C10_12
REMARK    6  A    between atoms: C13_15  and  C14_16
REMARK    7  A    between atoms: C17_21  and  C18_22
REMARK                            x       y       z     vdW  Elec       q    Type
REMARK                         _______ _______ _______ _____ _____    ______ ____
ROOT
ATOM      1  C7  CHE B   08     24.331  68.715   9.719  0.00  0.00    +0.092 A 
ATOM      2  N1  CHE B   08     20.176  67.115  15.270  0.00  0.00    -0.339 N 
ATOM      3  C8  CHE B   08     21.648  68.621  10.673  0.00  0.00    +0.125 A 
ATOM      4  N4  CHE B   08     19.819  66.830  16.162  0.00  0.00    -0.231 NA
ATOM      5  C17 CHE B   08     21.381  66.823  15.778  0.00  0.00    +0.094 A 
ATOM      6  H7  CHE B   08     21.927  68.553  10.790  0.00  0.00    +0.167 HD
ENDROOT
BRANCH   5   7
ATOM      7  C18 CHE B   08     25.804  68.731   9.297  0.00  0.00    -0.017 C 
ATOM      8  C19 CHE B   08     24.906  68.539  13.365  0.00  0.00    +0.009 C 
ATOM      9  C20 CHE B   08     24.374  68.477  16.505  0.00  0.00    +0.044 C 
ATOM     10  C21 CHE B   08     27.346  69.625  10.268  0.00  0.00    +0.130 C 
ATOM     11  O1  CHE B   08     27.459  69.774  11.498  0.00  0.00    -0.468 OA
ATOM     12  C22 CHE B   08     25.810  68.982  12.776  0.00  0.00    +0.395 C 
ATOM     13  O2  CHE B   08     24.405  68.249  13.049  0.00  0.00    -0.333 OA
ATOM     14  C23 CHE B   08     25.476  68.706  11.408  0.00  0.00    +0.191 C 
ATOM     15  C24 CHE B   08     21.966  67.163  16.147  0.00  0.00    +0.077 C 
ENDBRANCH   5   7
BRANCH   1  21
ATOM     16  C1  CHE B   08     25.087  68.532  10.038  0.00  0.00    +0.065 C 
ATOM     17  C2  CHE B   08     25.316  66.500   9.724  0.00  0.00    +0.039 A 
ATOM     18  C3  CHE B   08     26.467  66.221  10.210  0.00  0.00    +0.023 A 
ATOM     19  C4  CHE B   08     26.262  61.329   9.099  0.00  0.00    +0.004 A 
ATOM     20  C5  CHE B   08     25.869  64.389   9.548  0.00  0.00    +0.030 A 
ATOM     21  C6  CHE B   08     25.231  68.497  10.098  0.00  0.00    +0.089 A 
ATOM     22  N5  CHE B   08     24.738  67.628   9.686  0.00  0.00    -0.250 NA
ENDBRANCH   1  21
BRANCH   3  23
ATOM     23  C9  CHE B   08     21.632  69.742   7.535  0.00  0.00    +0.175 C 
BRANCH  23  24
ATOM     24  N2  CHE B   08     18.901  67.727  11.277  0.00  0.00    -0.337 N 
ATOM     25  H10 CHE B   08     19.699  68.270  10.721  0.00  0.00    +0.147 HD
BRANCH  24  26
ATOM     26  C10 CHE B   08     19.179  68.180   7.992  0.00  0.00    +0.028 A 
ATOM     27  C11 CHE B   08     19.555  68.566   5.939  0.00  0.00    +0.024 A 
ATOM     28  C12 CHE B   08     17.584  67.469   6.843  0.00  0.00    +0.020 A 
ATOM     29  C13 CHE B   08     16.614  66.927   7.306  0.00  0.00    +0.052 A 
ATOM     30  C15 CHE B   08     15.779  66.227  10.189  0.00  0.00    +0.020 A 
ATOM     31  C16 CHE B   08     18.660  67.948   7.618  0.00  0.00    +0.024 A 
BRANCH  29  32
ATOM     32  C14 CHE B   08     15.523  66.441   6.520  0.00  0.00    +0.099 C 
ATOM     33  N3  CHE B   08     16.492  69.392   1.259  0.00  0.00    -0.191 NA
ENDBRANCH  29  32
ENDBRANCH  24  26
ENDBRANCH  23  24
ENDBRANCH   3  23
TORSDOF 6
ENDMDL
MODEL 9
REMARK VINA RESULT:      -7.8      1.782      2.003
REMARK  Name = dock_mp/CHEMBL5/CHEMBL565846.pdb
REMARK  7 active torsions:
REMARK  status: ('A' for Active; 'I' for Inactive)
REMARK    1  A    between atoms: C1_1  and  C2_2
REMARK    2  A    between atoms: C6_6  and  C7_7
REMARK    3  A    between atoms: C8_9  and  C9_10
REMARK    4  A    between atoms: C9_10  and  N2_11
REMARK    5  A    between atoms: N2_11  and  C10_12
REMARK    6  A    between atoms: C13_15  and  C14_16
REMARK    7  A    between atoms: C17_21  and  C18_22
REMARK                            x       y       z     vdW  Elec       q    Type
REMARK                         _______ _______ _______ _____ _____    ______ ____
ROOT
ATOM      1  C7  CHE B   08     24.234  69.154   7.927  0.00  0.00    +0.092 A 
ATOM      2  N1  CHE B   08     19.735  68.664  13.419  0.00  0.00    -0.339 N 
ATOM      3  C8  CHE B   08     21.601  69.740   8.844  0.00  0.00    +0.125 A 
ATOM      4  N4  CHE B   08     19.305  68.479  14.306  0.00  0.00    -0.231 NA
ATOM      5  C17 CHE B   08     20.820  68.079  13.943  0.00  0.00    +0.094 A 
ATOM      6  H7  CHE B   08     21.852  69.605   8.966  0.00  0.00    +0.167 HD
ENDROOT
BRANCH   5   7
ATOM      7  C18 CHE B   08     25.669  68.798   7.526  0.00  0.00    -0.017 C 
ATOM      8  C19 CHE B   08     24.098  66.945  10.915  0.00  0.00    +0.009 C 
ATOM      9  C20 CHE B   08     23.012  65.395  13.477  0.00  0.00    +0.044 C 
ATOM     10  C21 CHE B   08     26.670  67.045   7.738  0.00  0.00    +0.130 C 
ATOM     11  O1  CHE B   08     26.497  66.198   8.632  0.00  0.00    -0.468 OA
ATOM     12  C22 CHE B   08     24.933  66.635  10.162  0.00  0.00    +0.395 C 
ATOM     13  O2  CHE B   08     23.773  67.514  10.846  0.00  0.00    -0.333 OA
ATOM     14  C23 CHE B   08     24.962  67.733   9.237  0.00  0.00    +0.191 C 
ATOM     15  C24 CHE B   08     21.200  67.414  14.024  0.00  0.00    +0.077 C 
ENDBRANCH   5   7
BRANCH   1  21
ATOM     16  C1  CHE B   08     24.915  68.788   8.256  0.00  0.00    +0.065 C 
ATOM     17  C2  CHE B   08     25.947  70.322   9.184  0.00  0.00    +0.039 A 
ATOM     18  C3  CHE B   08     26.984  69.763   9.686  0.00  0.00    +0.023 A 
ATOM     19  C4  CHE B   08     28.864  73.977  11.667  0.00  0.00    +0.004 A 
ATOM     20  C5  CHE B   08     27.271  71.699  10.253  0.00  0.00    +0.030 A 
ATOM     21  C6  CHE B   08     25.044  68.718   8.319  0.00  0.00    +0.089 A 
ATOM     22  N5  CHE B   08     25.014  69.780   8.519  0.00  0.00    -0.250 NA
ENDBRANCH   1  21
BRANCH   3  23
ATOM     23  C9  CHE B   08     21.910  70.823   5.708  0.00  0.00    +0.175 C 
BRANCH  23  24
ATOM     24  N2  CHE B   08     18.866  68.663   9.113  0.00  0.00    -0.337 N 
ATOM     25  H10 CHE B   08     19.592  69.355   8.628  0.00  0.00    +0.147 HD
BRANCH  24  26
ATOM     26  C10 CHE B   08     20.058  68.554   6.008  0.00  0.00    +0.028 A 
ATOM     27  C11 CHE B   08     21.025  68.484   4.120  0.00  0.00    +0.024 A 
ATOM     28  C12 CHE B   08     18.624  68.534   4.488  0.00  0.00    +0.020 A 
ATOM     29  C13 CHE B   08     17.437  68.559   4.687  0.00  0.00    +0.052 A 
ATOM     30  C15 CHE B   08     15.743  68.661   7.261  0.00  0.00    +0.020 A 
ATOM     31  C16 CHE B   08     19.592  68.547   5.514  0.00  0.00    +0.024 A 
BRANCH  29  32
ATOM     32  C14 CHE B   08     16.455  68.545   3.648  0.00  0.00    +0.099 C 
ATOM     33  N3  CHE B   08     12.605  64.297   5.759  0.00  0.00    -0.191 NA
ENDBRANCH  29  32
ENDBRANCH  24  26
ENDBRANCH  23  24
ENDBRANCH   3  23
TORSDOF 6
ENDMDL
MODEL 10
REMARK VINA RESULT:      -7.8      2.048      3.576
REMARK  Name = dock_mp/CHEMBL5/CHEMBL565846.pdb
REMARK  7 active torsions:
REMARK  status: ('A' for Active; 'I' for Inactive)
REMARK    1  A    between atoms: C1_1  and  C2_2
REMARK    2  A    between atoms: C6_6  and  C7_7
REMARK    3  A    between atoms: C8_9  and  C9_10
REMARK    4  A    between atoms: C9_10  and  N2_11
REMARK    5  A    between atoms: N2_11  and  C10_12
REMARK    6  A    between atoms: C13_15  and  C14_16
REMARK    7  A    between atoms: C17_21  and  C18_22
REMARK                            x       y       z     vdW  Elec       q    Type
REMARK                         _______ _______ _______ _____ _____    ______ ____
ROOT
ATOM      1  C7  CHE B   08     24.983  68.588   9.374  0.00  0.00    +0.092 A 
ATOM      2  N1  CHE B   08     21.027  68.309  15.283  0.00  0.00    -0.339 N 
ATOM      3  C8  CHE B   08     22.396  69.057  10.474  0.00  0.00    +0.125 A 
ATOM      4  N4  CHE B   08     20.692  68.183  16.220  0.00  0.00    -0.231 NA
ATOM      5  C17 CHE B   08     22.200  67.868  15.757  0.00  0.00    +0.094 A 
ATOM      6  H7  CHE B   08     22.668  68.955  10.583  0.00  0.00    +0.167 HD
ENDROOT
BRANCH   5   7
ATOM      7  C18 CHE B   08     26.404  68.306   8.876  0.00  0.00    -0.017 C 
ATOM      8  C19 CHE B   08     25.788  68.668  12.985  0.00  0.00    +0.009 C 
ATOM      9  C20 CHE B   08     25.485  69.001  16.138  0.00  0.00    +0.044 C 
ATOM     10  C21 CHE B   08     28.148  68.987   9.660  0.00  0.00    +0.130 C 
ATOM     11  O1  CHE B   08     28.376  69.227  10.859  0.00  0.00    -0.468 OA
ATOM     12  C22 CHE B   08     26.711  68.878  12.303  0.00  0.00    +0.395 C 
ATOM     13  O2  CHE B   08     25.221  68.446  12.730  0.00  0.00    -0.333 OA
ATOM     14  C23 CHE B   08     26.233  68.540  10.992  0.00  0.00    +0.191 C 
ATOM     15  C24 CHE B   08     22.862  68.126  16.054  0.00  0.00    +0.077 C 
ENDBRANCH   5   7
BRANCH   1  21
ATOM     16  C1  CHE B   08     25.718  68.311   9.671  0.00  0.00    +0.065 C 
ATOM     17  C2  CHE B   08     25.646  66.257   9.435  0.00  0.00    +0.039 A 
ATOM     18  C3  CHE B   08     26.766  65.835   9.888  0.00  0.00    +0.023 A 
ATOM     19  C4  CHE B   08     25.827  60.985   8.992  0.00  0.00    +0.004 A 
ATOM     20  C5  CHE B   08     25.888  64.084   9.327  0.00  0.00    +0.030 A 
ATOM     21  C6  CHE B   08     25.859  68.258   9.728  0.00  0.00    +0.089 A 
ATOM     22  N5  CHE B   08     25.231  67.454   9.371  0.00  0.00    -0.250 NA
ENDBRANCH   1  21
BRANCH   3  23
ATOM     23  C9  CHE B   08     22.342  69.835   7.234  0.00  0.00    +0.175 C 
BRANCH  23  24
ATOM     24  N2  CHE B   08     19.599  69.105  11.413  0.00  0.00    -0.337 N 
ATOM     25  H10 CHE B   08     20.431  69.381  10.726  0.00  0.00    +0.147 HD
BRANCH  24  26
ATOM     26  C10 CHE B   08     19.709  68.841   8.097  0.00  0.00    +0.028 A 
ATOM     27  C11 CHE B   08     19.971  68.792   5.992  0.00  0.00    +0.024 A 
ATOM     28  C12 CHE B   08     18.136  67.780   7.221  0.00  0.00    +0.020 A 
ATOM     29  C13 CHE B   08     17.233  67.284   7.845  0.00  0.00    +0.052 A 
ATOM     30  C15 CHE B   08     16.574  67.178  10.854  0.00  0.00    +0.020 A 
ATOM     31  C16 CHE B   08     19.197  68.496   7.812  0.00  0.00    +0.024 A 
BRANCH  29  32
ATOM     32  C14 CHE B   08     16.157  66.558   7.246  0.00  0.00    +0.099 C 
ATOM     33  N3  CHE B   08     14.416  63.023  11.913  0.00  0.00    -0.191 NA
ENDBRANCH  29  32
ENDBRANCH  24  26
ENDBRANCH  23  24
ENDBRANCH   3  23
TORSDOF 6
ENDMDL
