MODEL 1
REMARK VINA RESULT:      -9.8      0.000      0.000
REMARK  Name = dock_mp/CHEMBL5/CHEMBL537968.pdb
REMARK  4 active torsions:
REMARK  status: ('A' for Active; 'I' for Inactive)
REMARK    1  A    between atoms: C1_1  and  C2_2
REMARK    2  A    between atoms: C6_6  and  C7_7
REMARK    3  A    between atoms: C8_9  and  N2_10
REMARK    4  A    between atoms: N2_10  and  C9_11
REMARK                            x       y       z     vdW  Elec       q    Type
REMARK                         _______ _______ _______ _____ _____    ______ ____
ROOT
ATOM      1  C7  CHE B   09     18.415  68.013  10.859  0.00  0.00    +0.181 A 
ATOM      2  N1  CHE B   09     18.633  68.662   9.532  0.00  0.00    -0.210 NA
ATOM      3  C8  CHE B   09     21.397  70.004   6.776  0.00  0.00    +0.135 A 
ATOM      4  C16 CHE B   09     22.263  70.224   6.322  0.00  0.00    +0.040 A 
ATOM      5  C17 CHE B   09     17.513  69.404   8.022  0.00  0.00    +0.013 A 
ATOM      6  C18 CHE B   09     18.401  69.609   7.599  0.00  0.00    +0.001 A 
ATOM      7  C19 CHE B   09     19.854  69.440   7.937  0.00  0.00    +0.002 A 
ATOM      8  C20 CHE B   09     17.101  68.090  10.708  0.00  0.00    +0.028 A 
ATOM      9  C21 CHE B   09     17.056  68.120  10.648  0.00  0.00    +0.077 A 
ATOM     10  N5  CHE B   09     20.119  68.471   9.915  0.00  0.00    -0.226 NA
ENDROOT
BRANCH   1  16
ATOM     11  C1  CHE B   09     19.187  66.601  15.446  0.00  0.00    +0.065 C 
ATOM     12  C2  CHE B   09     22.672  67.901  11.881  0.00  0.00    +0.039 A 
ATOM     13  C3  CHE B   09     21.767  67.727  12.290  0.00  0.00    +0.023 A 
ATOM     14  C4  CHE B   09     21.961  68.194  10.845  0.00  0.00    +0.004 A 
ATOM     15  C5  CHE B   09     17.266  67.392  12.642  0.00  0.00    +0.031 A 
ATOM     16  C6  CHE B   09     22.343  68.583   9.672  0.00  0.00    +0.108 A 
ATOM     17  N6  CHE B   09     21.299  67.920  11.607  0.00  0.00    -0.249 NA
ENDBRANCH   1  16
BRANCH   3  18
ATOM     18  N2  CHE B   09     21.615  70.654   5.448  0.00  0.00    -0.299 N 
ATOM     19  H7  CHE B   09     17.997  67.628   7.107  0.00  0.00    +0.154 HD
BRANCH  18  20
ATOM     20  C9  CHE B   09     15.371  65.852   7.206  0.00  0.00    +0.033 A 
ATOM     21  C10 CHE B   09     17.932  68.065   4.813  0.00  0.00    +0.025 A 
ATOM     22  C11 CHE B   09     16.829  67.357   4.161  0.00  0.00    +0.029 A 
ATOM     23  C12 CHE B   09     14.636  65.606   5.222  0.00  0.00    +0.066 A 
ATOM     24  N3  CHE B   09     19.483  69.602   2.020  0.00  0.00    -0.277 N 
ATOM     25  N4  CHE B   09     18.915  69.072   2.811  0.00  0.00    -0.181 NA
ATOM     26  C13 CHE B   09     19.329  69.211   3.929  0.00  0.00    +0.142 A 
ATOM     27  C14 CHE B   09     15.739  66.314   5.874  0.00  0.00    +0.021 A 
ATOM     28  C15 CHE B   09     19.777  69.361   5.140  0.00  0.00    +0.034 A 
ATOM     29  H10 CHE B   09     17.701  68.327   1.861  0.00  0.00    +0.189 HD
ENDBRANCH  18  20
ENDBRANCH   3  18
TORSDOF 3
ENDMDL
MODEL 2
REMARK VINA RESULT:      -9.2      2.517      4.217
REMARK  Name = dock_mp/CHEMBL5/CHEMBL537968.pdb
REMARK  4 active torsions:
REMARK  status: ('A' for Active; 'I' for Inactive)
REMARK    1  A    between atoms: C1_1  and  C2_2
REMARK    2  A    between atoms: C6_6  and  C7_7
REMARK    3  A    between atoms: C8_9  and  N2_10
REMARK    4  A    between atoms: N2_10  and  C9_11
REMARK                            x       y       z     vdW  Elec       q    Type
REMARK                         _______ _______ _______ _____ _____    ______ ____
ROOT
ATOM      1  C7  CHE B   09     22.570  70.051   9.335  0.00  0.00    +0.181 A 
ATOM      2  N1  CHE B   09     21.798  70.077   8.056  0.00  0.00    -0.210 NA
ATOM      3  C8  CHE B   09     21.931  69.636   3.954  0.00  0.00    +0.135 A 
ATOM      4  C16 CHE B   09     22.261  69.475   3.022  0.00  0.00    +0.040 A 
ATOM      5  C17 CHE B   09     19.896  70.400   7.458  0.00  0.00    +0.013 A 
ATOM      6  C18 CHE B   09     20.264  70.233   6.538  0.00  0.00    +0.001 A 
ATOM      7  C19 CHE B   09     21.592  69.903   5.919  0.00  0.00    +0.002 A 
ATOM      8  C20 CHE B   09     21.478  70.341  10.028  0.00  0.00    +0.028 A 
ATOM      9  C21 CHE B   09     21.403  70.354  10.004  0.00  0.00    +0.077 A 
ATOM     10  N5  CHE B   09     23.183  69.737   7.456  0.00  0.00    -0.226 NA
ENDROOT
BRANCH   1  16
ATOM     11  C1  CHE B   09     26.282  70.234  12.469  0.00  0.00    +0.065 C 
ATOM     12  C2  CHE B   09     26.435  69.369   7.392  0.00  0.00    +0.039 A 
ATOM     13  C3  CHE B   09     26.042  69.557   8.302  0.00  0.00    +0.023 A 
ATOM     14  C4  CHE B   09     25.198  69.422   7.031  0.00  0.00    +0.004 A 
ATOM     15  C5  CHE B   09     22.935  70.378  11.490  0.00  0.00    +0.031 A 
ATOM     16  C6  CHE B   09     24.680  69.273   5.855  0.00  0.00    +0.108 A 
ATOM     17  N6  CHE B   09     25.227  69.593   8.063  0.00  0.00    -0.249 NA
ENDBRANCH   1  16
BRANCH   3  18
ATOM     18  N2  CHE B   09     21.159  69.662   2.675  0.00  0.00    -0.299 N 
ATOM     19  H7  CHE B   09     19.924  68.104   7.263  0.00  0.00    +0.154 HD
BRANCH  18  20
ATOM     20  C9  CHE B   09     18.267  66.913   9.691  0.00  0.00    +0.033 A 
ATOM     21  C10 CHE B   09     18.243  67.844   5.651  0.00  0.00    +0.025 A 
ATOM     22  C11 CHE B   09     17.034  67.245   6.222  0.00  0.00    +0.029 A 
ATOM     23  C12 CHE B   09     16.340  66.332   8.994  0.00  0.00    +0.066 A 
ATOM     24  N3  CHE B   09     17.254  68.251   2.271  0.00  0.00    -0.277 N 
ATOM     25  N4  CHE B   09     17.448  68.074   3.348  0.00  0.00    -0.181 NA
ATOM     26  C13 CHE B   09     18.534  68.401   3.741  0.00  0.00    +0.142 A 
ATOM     27  C14 CHE B   09     17.548  66.931   8.423  0.00  0.00    +0.021 A 
ATOM     28  C15 CHE B   09     19.710  68.756   4.167  0.00  0.00    +0.034 A 
ATOM     29  H10 CHE B   09     15.950  67.388   3.814  0.00  0.00    +0.189 HD
ENDBRANCH  18  20
ENDBRANCH   3  18
TORSDOF 3
ENDMDL
MODEL 3
REMARK VINA RESULT:      -9.1      2.507      8.419
REMARK  Name = dock_mp/CHEMBL5/CHEMBL537968.pdb
REMARK  4 active torsions:
REMARK  status: ('A' for Active; 'I' for Inactive)
REMARK    1  A    between atoms: C1_1  and  C2_2
REMARK    2  A    between atoms: C6_6  and  C7_7
REMARK    3  A    between atoms: C8_9  and  N2_10
REMARK    4  A    between atoms: N2_10  and  C9_11
REMARK                            x       y       z     vdW  Elec       q    Type
REMARK                         _______ _______ _______ _____ _____    ______ ____
ROOT
ATOM      1  C7  CHE B   09     20.360  69.407   7.299  0.00  0.00    +0.181 A 
ATOM      2  N1  CHE B   09     20.716  69.611   8.735  0.00  0.00    -0.210 NA
ATOM      3  C8  CHE B   09     19.858  68.652  12.657  0.00  0.00    +0.135 A 
ATOM      4  C16 CHE B   09     19.433  68.248  13.470  0.00  0.00    +0.040 A 
ATOM      5  C17 CHE B   09     22.066  70.659   9.812  0.00  0.00    +0.013 A 
ATOM      6  C18 CHE B   09     21.614  70.235  10.604  0.00  0.00    +0.001 A 
ATOM      7  C19 CHE B   09     20.481  69.282  10.851  0.00  0.00    +0.002 A 
ATOM      8  C20 CHE B   09     21.326  70.230   6.918  0.00  0.00    +0.028 A 
ATOM      9  C21 CHE B   09     21.380  70.272   6.961  0.00  0.00    +0.077 A 
ATOM     10  N5  CHE B   09     19.543  68.626   8.951  0.00  0.00    -0.226 NA
ENDROOT
BRANCH   1  16
ATOM     11  C1  CHE B   09     17.865  68.249   3.291  0.00  0.00    +0.065 C 
ATOM     12  C2  CHE B   09     16.927  66.825   8.153  0.00  0.00    +0.039 A 
ATOM     13  C3  CHE B   09     17.391  67.276   7.378  0.00  0.00    +0.023 A 
ATOM     14  C4  CHE B   09     17.868  67.392   8.829  0.00  0.00    +0.004 A 
ATOM     15  C5  CHE B   09     20.411  69.781   5.121  0.00  0.00    +0.031 A 
ATOM     16  C6  CHE B   09     18.098  67.358  10.101  0.00  0.00    +0.108 A 
ATOM     17  N6  CHE B   09     18.011  67.649   7.824  0.00  0.00    -0.249 NA
ENDBRANCH   1  16
BRANCH   3  18
ATOM     18  N2  CHE B   09     20.214  68.856  14.094  0.00  0.00    -0.299 N 
ATOM     19  H7  CHE B   09     23.047  68.017  10.060  0.00  0.00    +0.154 HD
BRANCH  18  20
ATOM     20  C9  CHE B   09     25.578  67.547   8.206  0.00  0.00    +0.033 A 
ATOM     21  C10 CHE B   09     24.218  68.079  12.086  0.00  0.00    +0.025 A 
ATOM     22  C11 CHE B   09     25.651  67.845  11.890  0.00  0.00    +0.029 A 
ATOM     23  C12 CHE B   09     27.311  67.387   9.433  0.00  0.00    +0.066 A 
ATOM     24  N3  CHE B   09     24.072  68.397  15.614  0.00  0.00    -0.277 N 
ATOM     25  N4  CHE B   09     24.243  68.280  14.525  0.00  0.00    -0.181 NA
ATOM     26  C13 CHE B   09     23.266  68.370  13.833  0.00  0.00    +0.142 A 
ATOM     27  C14 CHE B   09     25.879  67.621   9.630  0.00  0.00    +0.021 A 
ATOM     28  C15 CHE B   09     22.208  68.468  13.084  0.00  0.00    +0.034 A 
ATOM     29  H10 CHE B   09     25.936  68.022  14.513  0.00  0.00    +0.189 HD
ENDBRANCH  18  20
ENDBRANCH   3  18
TORSDOF 3
ENDMDL
MODEL 4
REMARK VINA RESULT:      -9.1      2.453      5.648
REMARK  Name = dock_mp/CHEMBL5/CHEMBL537968.pdb
REMARK  4 active torsions:
REMARK  status: ('A' for Active; 'I' for Inactive)
REMARK    1  A    between atoms: C1_1  and  C2_2
REMARK    2  A    between atoms: C6_6  and  C7_7
REMARK    3  A    between atoms: C8_9  and  N2_10
REMARK    4  A    between atoms: N2_10  and  C9_11
REMARK                            x       y       z     vdW  Elec       q    Type
REMARK                         _______ _______ _______ _____ _____    ______ ____
ROOT
ATOM      1  C7  CHE B   09     20.505  69.108   9.506  0.00  0.00    +0.181 A 
ATOM      2  N1  CHE B   09     20.646  69.522   8.078  0.00  0.00    -0.210 NA
ATOM      3  C8  CHE B   09     19.241  69.086   4.220  0.00  0.00    +0.135 A 
ATOM      4  C16 CHE B   09     18.709  68.784   3.427  0.00  0.00    +0.040 A 
ATOM      5  C17 CHE B   09     21.807  70.759   6.981  0.00  0.00    +0.013 A 
ATOM      6  C18 CHE B   09     21.252  70.433   6.209  0.00  0.00    +0.001 A 
ATOM      7  C19 CHE B   09     20.110  69.482   5.992  0.00  0.00    +0.002 A 
ATOM      8  C20 CHE B   09     21.503  69.906   9.860  0.00  0.00    +0.028 A 
ATOM      9  C21 CHE B   09     21.549  69.955   9.816  0.00  0.00    +0.077 A 
ATOM     10  N5  CHE B   09     19.470  68.535   7.892  0.00  0.00    -0.226 NA
ENDROOT
BRANCH   1  16
ATOM     11  C1  CHE B   09     18.694  67.243  13.613  0.00  0.00    +0.065 C 
ATOM     12  C2  CHE B   09     17.054  66.511   8.784  0.00  0.00    +0.039 A 
ATOM     13  C3  CHE B   09     17.619  66.865   9.541  0.00  0.00    +0.023 A 
ATOM     14  C4  CHE B   09     17.863  67.219   8.071  0.00  0.00    +0.004 A 
ATOM     15  C5  CHE B   09     20.883  69.157  11.683  0.00  0.00    +0.031 A 
ATOM     16  C6  CHE B   09     17.894  67.386   6.789  0.00  0.00    +0.108 A 
ATOM     17  N6  CHE B   09     18.152  67.331   9.071  0.00  0.00    -0.249 NA
ENDBRANCH   1  16
BRANCH   3  18
ATOM     18  N2  CHE B   09     19.382  69.501   2.792  0.00  0.00    -0.299 N 
ATOM     19  H7  CHE B   09     22.775  68.859   6.408  0.00  0.00    +0.154 HD
BRANCH  18  20
ATOM     20  C9  CHE B   09     25.547  68.731   7.943  0.00  0.00    +0.033 A 
ATOM     21  C10 CHE B   09     23.666  69.388   4.308  0.00  0.00    +0.025 A 
ATOM     22  C11 CHE B   09     25.129  69.448   4.341  0.00  0.00    +0.029 A 
ATOM     23  C12 CHE B   09     27.122  69.088   6.554  0.00  0.00    +0.066 A 
ATOM     24  N3  CHE B   09     23.048  70.060   0.882  0.00  0.00    -0.277 N 
ATOM     25  N4  CHE B   09     23.365  69.861   1.926  0.00  0.00    -0.181 NA
ATOM     26  C13 CHE B   09     22.477  69.660   2.708  0.00  0.00    +0.142 A 
ATOM     27  C14 CHE B   09     25.659  69.027   6.521  0.00  0.00    +0.021 A 
ATOM     28  C15 CHE B   09     21.516  69.443   3.556  0.00  0.00    +0.034 A 
ATOM     29  H10 CHE B   09     25.064  69.975   1.750  0.00  0.00    +0.189 HD
ENDBRANCH  18  20
ENDBRANCH   3  18
TORSDOF 3
ENDMDL
MODEL 5
REMARK VINA RESULT:      -8.9      3.089      9.253
REMARK  Name = dock_mp/CHEMBL5/CHEMBL537968.pdb
REMARK  4 active torsions:
REMARK  status: ('A' for Active; 'I' for Inactive)
REMARK    1  A    between atoms: C1_1  and  C2_2
REMARK    2  A    between atoms: C6_6  and  C7_7
REMARK    3  A    between atoms: C8_9  and  N2_10
REMARK    4  A    between atoms: N2_10  and  C9_11
REMARK                            x       y       z     vdW  Elec       q    Type
REMARK                         _______ _______ _______ _____ _____    ______ ____
ROOT
ATOM      1  C7  CHE B   09     20.655  69.267  10.498  0.00  0.00    +0.181 A 
ATOM      2  N1  CHE B   09     20.378  68.809  11.892  0.00  0.00    -0.210 NA
ATOM      3  C8  CHE B   09     17.651  67.073  14.459  0.00  0.00    +0.135 A 
ATOM      4  C16 CHE B   09     16.820  66.647  14.823  0.00  0.00    +0.040 A 
ATOM      5  C17 CHE B   09     21.332  68.753  13.672  0.00  0.00    +0.013 A 
ATOM      6  C18 CHE B   09     20.483  68.329  14.001  0.00  0.00    +0.001 A 
ATOM      7  C19 CHE B   09     19.151  67.933  13.431  0.00  0.00    +0.002 A 
ATOM      8  C20 CHE B   09     21.869  69.670  10.847  0.00  0.00    +0.028 A 
ATOM      9  C21 CHE B   09     21.907  69.668  10.917  0.00  0.00    +0.077 A 
ATOM     10  N5  CHE B   09     19.018  68.415  11.270  0.00  0.00    -0.226 NA
ENDROOT
BRANCH   1  16
ATOM     11  C1  CHE B   09     20.280  69.967   5.702  0.00  0.00    +0.065 C 
ATOM     12  C2  CHE B   09     16.795  67.941   8.910  0.00  0.00    +0.039 A 
ATOM     13  C3  CHE B   09     17.662  68.357   8.606  0.00  0.00    +0.023 A 
ATOM     14  C4  CHE B   09     17.375  67.978  10.062  0.00  0.00    +0.004 A 
ATOM     15  C5  CHE B   09     21.850  70.065   8.818  0.00  0.00    +0.031 A 
ATOM     16  C6  CHE B   09     16.936  67.589  11.214  0.00  0.00    +0.108 A 
ATOM     17  N6  CHE B   09     18.045  68.381   9.365  0.00  0.00    -0.249 NA
ENDBRANCH   1  16
BRANCH   3  18
ATOM     18  N2  CHE B   09     17.373  66.615  15.854  0.00  0.00    -0.299 N 
ATOM     19  H7  CHE B   09     21.516  66.420  13.062  0.00  0.00    +0.154 HD
BRANCH  18  20
ATOM     20  C9  CHE B   09     24.498  65.856  12.139  0.00  0.00    +0.033 A 
ATOM     21  C10 CHE B   09     21.515  65.008  14.890  0.00  0.00    +0.025 A 
ATOM     22  C11 CHE B   09     22.739  64.205  14.940  0.00  0.00    +0.029 A 
ATOM     23  C12 CHE B   09     25.257  64.247  13.310  0.00  0.00    +0.066 A 
ATOM     24  N3  CHE B   09     19.659  63.561  17.542  0.00  0.00    -0.277 N 
ATOM     25  N4  CHE B   09     20.331  63.930  16.740  0.00  0.00    -0.181 NA
ATOM     26  C13 CHE B   09     19.903  64.836  16.081  0.00  0.00    +0.142 A 
ATOM     27  C14 CHE B   09     24.033  65.049  13.260  0.00  0.00    +0.021 A 
ATOM     28  C15 CHE B   09     19.440  65.819  15.366  0.00  0.00    +0.034 A 
ATOM     29  H10 CHE B   09     21.669  62.885  16.966  0.00  0.00    +0.189 HD
ENDBRANCH  18  20
ENDBRANCH   3  18
TORSDOF 3
ENDMDL
MODEL 6
REMARK VINA RESULT:      -8.7      2.457      8.685
REMARK  Name = dock_mp/CHEMBL5/CHEMBL537968.pdb
REMARK  4 active torsions:
REMARK  status: ('A' for Active; 'I' for Inactive)
REMARK    1  A    between atoms: C1_1  and  C2_2
REMARK    2  A    between atoms: C6_6  and  C7_7
REMARK    3  A    between atoms: C8_9  and  N2_10
REMARK    4  A    between atoms: N2_10  and  C9_11
REMARK                            x       y       z     vdW  Elec       q    Type
REMARK                         _______ _______ _______ _____ _____    ______ ____
ROOT
ATOM      1  C7  CHE B   09     20.203  69.126   8.224  0.00  0.00    +0.181 A 
ATOM      2  N1  CHE B   09     20.087  69.016   9.709  0.00  0.00    -0.210 NA
ATOM      3  C8  CHE B   09     17.950  67.464  12.882  0.00  0.00    +0.135 A 
ATOM      4  C16 CHE B   09     17.262  66.974  13.420  0.00  0.00    +0.040 A 
ATOM      5  C17 CHE B   09     21.076  69.670  11.344  0.00  0.00    +0.013 A 
ATOM      6  C18 CHE B   09     20.368  69.167  11.850  0.00  0.00    +0.001 A 
ATOM      7  C19 CHE B   09     19.161  68.334  11.530  0.00  0.00    +0.002 A 
ATOM      8  C20 CHE B   09     21.288  69.879   8.341  0.00  0.00    +0.028 A 
ATOM      9  C21 CHE B   09     21.327  69.905   8.406  0.00  0.00    +0.077 A 
ATOM     10  N5  CHE B   09     18.850  68.163   9.341  0.00  0.00    -0.226 NA
ENDROOT
BRANCH   1  16
ATOM     11  C1  CHE B   09     18.961  69.227   3.525  0.00  0.00    +0.065 C 
ATOM     12  C2  CHE B   09     16.477  66.967   7.431  0.00  0.00    +0.039 A 
ATOM     13  C3  CHE B   09     17.188  67.496   6.951  0.00  0.00    +0.023 A 
ATOM     14  C4  CHE B   09     17.210  67.230   8.460  0.00  0.00    +0.004 A 
ATOM     15  C5  CHE B   09     20.944  69.940   6.307  0.00  0.00    +0.031 A 
ATOM     16  C6  CHE B   09     17.038  66.895   9.697  0.00  0.00    +0.108 A 
ATOM     17  N6  CHE B   09     17.671  67.670   7.629  0.00  0.00    -0.249 NA
ENDBRANCH   1  16
BRANCH   3  18
ATOM     18  N2  CHE B   09     17.835  67.353  14.367  0.00  0.00    -0.299 N 
ATOM     19  H7  CHE B   09     21.774  66.980  11.310  0.00  0.00    +0.154 HD
BRANCH  18  20
ATOM     20  C9  CHE B   09     24.742  66.590  10.262  0.00  0.00    +0.033 A 
ATOM     21  C10 CHE B   09     22.240  66.564  13.567  0.00  0.00    +0.025 A 
ATOM     22  C11 CHE B   09     23.651  66.233  13.776  0.00  0.00    +0.029 A 
ATOM     23  C12 CHE B   09     25.989  66.055  11.904  0.00  0.00    +0.066 A 
ATOM     24  N3  CHE B   09     20.991  66.275  16.873  0.00  0.00    -0.277 N 
ATOM     25  N4  CHE B   09     21.495  66.333  15.887  0.00  0.00    -0.181 NA
ATOM     26  C13 CHE B   09     20.792  66.635  14.962  0.00  0.00    +0.142 A 
ATOM     27  C14 CHE B   09     24.577  66.385  11.695  0.00  0.00    +0.021 A 
ATOM     28  C15 CHE B   09     20.031  66.961  13.960  0.00  0.00    +0.034 A 
ATOM     29  H10 CHE B   09     23.094  65.923  16.342  0.00  0.00    +0.189 HD
ENDBRANCH  18  20
ENDBRANCH   3  18
TORSDOF 3
ENDMDL
