MODEL 1
REMARK VINA RESULT:      -8.9      0.000      0.000
REMARK  Name = dock_mp/CHEMBL5/CHEMBL574415.pdb
REMARK  12 active torsions:
REMARK  status: ('A' for Active; 'I' for Inactive)
REMARK    1  A    between atoms: C1_1  and  O1_2
REMARK    2  A    between atoms: O1_2  and  C2_3
REMARK    3  A    between atoms: C4_5  and  N1_6
REMARK    4  A    between atoms: N1_6  and  C5_7
REMARK    5  A    between atoms: C7_9  and  O2_10
REMARK    6  A    between atoms: O2_10  and  C8_11
REMARK    7  A    between atoms: C11_14  and  C12_15
REMARK    8  A    between atoms: C13_17  and  C14_18
REMARK    9  A    between atoms: C18_23  and  O3_24
REMARK   10  A    between atoms: O3_24  and  C19_25
REMARK   11  A    between atoms: C20_26  and  O4_27
REMARK   12  A    between atoms: O4_27  and  C21_28
REMARK                            x       y       z     vdW  Elec       q    Type
REMARK                         _______ _______ _______ _____ _____    ______ ____
ROOT
ATOM      1  C5  CHE B   04     19.866  69.625   6.330  0.00  0.00    +0.126 A 
ATOM      2  C6  CHE B   04     20.490  69.612   7.679  0.00  0.00    +0.090 A 
ATOM      3  C7  CHE B   04     23.352  71.160  10.279  0.00  0.00    +0.133 A 
ATOM      4  C15 CHE B   04     18.115  67.447   7.489  0.00  0.00    +0.066 A 
ATOM      5  C16 CHE B   04     17.491  67.459   6.140  0.00  0.00    +0.116 A 
ATOM      6  N3  CHE B   04     18.361  68.526   5.599  0.00  0.00    -0.240 NA
ENDROOT
BRANCH   1   7
ATOM      7  N1  CHE B   04     19.248  69.667   4.929  0.00  0.00    -0.299 N 
ATOM      8  H5  CHE B   04     20.171  69.618   5.325  0.00  0.00    +0.154 HD
BRANCH   7  11
ATOM      9  C2  CHE B   04     19.088  69.557   2.000  0.00  0.00    +0.167 A 
ATOM     10  C3  CHE B   04     21.601  69.506   4.048  0.00  0.00    +0.073 A 
ATOM     11  C4  CHE B   04     25.368  69.360   5.402  0.00  0.00    +0.040 A 
ATOM     12  C17 CHE B   04     20.908  69.496   2.887  0.00  0.00    +0.073 A 
ATOM     13  C18 CHE B   04     25.098  69.271   2.836  0.00  0.00    +0.167 A 
ATOM     14  C20 CHE B   04     25.150  69.261   2.664  0.00  0.00    +0.204 A 
BRANCH   9  16
ATOM     15  C1  CHE B   04     16.955  69.145   2.018  0.00  0.00    +0.277 C 
ATOM     16  O1  CHE B   04     22.023  69.427   2.652  0.00  0.00    -0.491 OA
ENDBRANCH   9  16
BRANCH  13  17
ATOM     17  O3  CHE B   04     23.521  69.286   1.146  0.00  0.00    -0.491 OA
ATOM     18  C19 CHE B   04     23.519  69.310   1.128  0.00  0.00    +0.277 C 
ENDBRANCH  13  17
BRANCH  14  19
ATOM     19  O4  CHE B   04     26.470  69.154   1.751  0.00  0.00    -0.488 OA
ATOM     20  C21 CHE B   04     25.132  72.877   2.712  0.00  0.00    +0.277 C 
ENDBRANCH  14  19
ENDBRANCH   7  11
ENDBRANCH   1   7
BRANCH   3  21
ATOM     21  O2  CHE B   04     21.728  69.538  10.463  0.00  0.00    -0.454 OA
BRANCH  21  22
ATOM     22  C8  CHE B   04     22.975  68.654  10.179  0.00  0.00    +0.149 A 
ATOM     23  C9  CHE B   04     23.845  68.096   9.618  0.00  0.00    +0.050 A 
ATOM     24  C10 CHE B   04     22.336  68.435  14.522  0.00  0.00    +0.026 A 
ATOM     25  C11 CHE B   04     24.521  67.319  11.320  0.00  0.00    +0.039 A 
ATOM     26  C12 CHE B   04     24.913  66.787  12.813  0.00  0.00    +0.065 C 
ATOM     27  N2  CHE B   04     20.901  69.095  17.074  0.00  0.00    -0.253 NA
ATOM     28  C13 CHE B   04     22.431  68.739  12.185  0.00  0.00    +0.081 A 
ATOM     29  C14 CHE B   04     23.455  68.432   9.330  0.00  0.00    +0.069 C 
ENDBRANCH  21  22
ENDBRANCH   3  21
TORSDOF 7
ENDMDL
MODEL 2
REMARK VINA RESULT:      -8.8      1.929      2.313
REMARK  Name = dock_mp/CHEMBL5/CHEMBL574415.pdb
REMARK  12 active torsions:
REMARK  status: ('A' for Active; 'I' for Inactive)
REMARK    1  A    between atoms: C1_1  and  O1_2
REMARK    2  A    between atoms: O1_2  and  C2_3
REMARK    3  A    between atoms: C4_5  and  N1_6
REMARK    4  A    between atoms: N1_6  and  C5_7
REMARK    5  A    between atoms: C7_9  and  O2_10
REMARK    6  A    between atoms: O2_10  and  C8_11
REMARK    7  A    between atoms: C11_14  and  C12_15
REMARK    8  A    between atoms: C13_17  and  C14_18
REMARK    9  A    between atoms: C18_23  and  O3_24
REMARK   10  A    between atoms: O3_24  and  C19_25
REMARK   11  A    between atoms: C20_26  and  O4_27
REMARK   12  A    between atoms: O4_27  and  C21_28
REMARK                            x       y       z     vdW  Elec       q    Type
REMARK                         _______ _______ _______ _____ _____    ______ ____
ROOT
ATOM      1  C5  CHE B   04     20.216  68.964   6.583  0.00  0.00    +0.126 A 
ATOM      2  C6  CHE B   04     21.031  68.453   7.716  0.00  0.00    +0.090 A 
ATOM      3  C7  CHE B   04     24.687  68.380   9.709  0.00  0.00    +0.133 A 
ATOM      4  C15 CHE B   04     18.040  67.264   7.820  0.00  0.00    +0.066 A 
ATOM      5  C16 CHE B   04     17.225  67.776   6.687  0.00  0.00    +0.116 A 
ATOM      6  N3  CHE B   04     18.307  68.599   6.104  0.00  0.00    -0.240 NA
ENDROOT
BRANCH   1   7
ATOM      7  N1  CHE B   04     19.408  69.513   5.403  0.00  0.00    -0.299 N 
ATOM      8  H5  CHE B   04     20.377  69.351   5.620  0.00  0.00    +0.154 HD
BRANCH   7  11
ATOM      9  C2  CHE B   04     18.783  69.541   2.535  0.00  0.00    +0.167 A 
ATOM     10  C3  CHE B   04     21.591  69.429   4.152  0.00  0.00    +0.073 A 
ATOM     11  C4  CHE B   04     25.526  69.273   4.880  0.00  0.00    +0.040 A 
ATOM     12  C17 CHE B   04     20.721  69.464   3.117  0.00  0.00    +0.073 A 
ATOM     13  C18 CHE B   04     24.851  69.303   2.388  0.00  0.00    +0.167 A 
ATOM     14  C20 CHE B   04     24.875  69.302   2.210  0.00  0.00    +0.204 A 
BRANCH   9  16
ATOM     15  C1  CHE B   04     16.740  69.166   1.895  0.00  0.00    +0.277 C 
ATOM     16  O1  CHE B   04     21.784  69.423   2.705  0.00  0.00    -0.491 OA
ENDBRANCH   9  16
BRANCH  13  17
ATOM     17  O3  CHE B   04     23.024  69.377   0.974  0.00  0.00    -0.491 OA
ATOM     18  C19 CHE B   04     23.027  69.384   0.945  0.00  0.00    +0.277 C 
ENDBRANCH  13  17
BRANCH  14  19
ATOM     19  O4  CHE B   04     26.032  69.259   1.094  0.00  0.00    -0.488 OA
ATOM     20  C21 CHE B   04     25.107  72.876   2.718  0.00  0.00    +0.277 C 
ENDBRANCH  14  19
ENDBRANCH   7  11
ENDBRANCH   1   7
BRANCH   3  21
ATOM     21  O2  CHE B   04     22.649  67.368  10.060  0.00  0.00    -0.454 OA
BRANCH  21  22
ATOM     22  C8  CHE B   04     22.554  68.546  11.069  0.00  0.00    +0.149 A 
ATOM     23  C9  CHE B   04     22.337  69.605  11.535  0.00  0.00    +0.050 A 
ATOM     24  C10 CHE B   04     24.337  65.214  13.312  0.00  0.00    +0.026 A 
ATOM     25  C11 CHE B   04     23.053  69.038  13.302  0.00  0.00    +0.039 A 
ATOM     26  C12 CHE B   04     23.676  68.380  14.660  0.00  0.00    +0.065 C 
ATOM     27  N2  CHE B   04     25.366  62.411  13.614  0.00  0.00    -0.253 NA
ATOM     28  C13 CHE B   04     23.373  66.809  11.866  0.00  0.00    +0.081 A 
ATOM     29  C14 CHE B   04     22.212  69.481  10.972  0.00  0.00    +0.069 C 
ENDBRANCH  21  22
ENDBRANCH   3  21
TORSDOF 7
ENDMDL
MODEL 3
REMARK VINA RESULT:      -8.6      3.098      6.175
REMARK  Name = dock_mp/CHEMBL5/CHEMBL574415.pdb
REMARK  12 active torsions:
REMARK  status: ('A' for Active; 'I' for Inactive)
REMARK    1  A    between atoms: C1_1  and  O1_2
REMARK    2  A    between atoms: O1_2  and  C2_3
REMARK    3  A    between atoms: C4_5  and  N1_6
REMARK    4  A    between atoms: N1_6  and  C5_7
REMARK    5  A    between atoms: C7_9  and  O2_10
REMARK    6  A    between atoms: O2_10  and  C8_11
REMARK    7  A    between atoms: C11_14  and  C12_15
REMARK    8  A    between atoms: C13_17  and  C14_18
REMARK    9  A    between atoms: C18_23  and  O3_24
REMARK   10  A    between atoms: O3_24  and  C19_25
REMARK   11  A    between atoms: C20_26  and  O4_27
REMARK   12  A    between atoms: O4_27  and  C21_28
REMARK                            x       y       z     vdW  Elec       q    Type
REMARK                         _______ _______ _______ _____ _____    ______ ____
ROOT
ATOM      1  C5  CHE B   04     22.552  69.724   7.135  0.00  0.00    +0.126 A 
ATOM      2  C6  CHE B   04     21.089  69.534   6.947  0.00  0.00    +0.090 A 
ATOM      3  C7  CHE B   04     17.954  68.328   4.486  0.00  0.00    +0.133 A 
ATOM      4  C15 CHE B   04     21.732  70.721   9.871  0.00  0.00    +0.066 A 
ATOM      5  C16 CHE B   04     23.194  70.911  10.058  0.00  0.00    +0.116 A 
ATOM      6  N3  CHE B   04     23.566  70.419   8.714  0.00  0.00    -0.240 NA
ENDROOT
BRANCH   1   7
ATOM      7  N1  CHE B   04     24.064  69.906   7.290  0.00  0.00    -0.299 N 
ATOM      8  H5  CHE B   04     23.403  69.853   6.534  0.00  0.00    +0.154 HD
BRANCH   7  11
ATOM      9  C2  CHE B   04     26.868  69.455   6.545  0.00  0.00    +0.167 A 
ATOM     10  C3  CHE B   04     24.159  69.710   4.782  0.00  0.00    +0.073 A 
ATOM     11  C4  CHE B   04     21.712  69.826   1.613  0.00  0.00    +0.040 A 
ATOM     12  C17 CHE B   04     25.466  69.547   5.086  0.00  0.00    +0.073 A 
ATOM     13  C18 CHE B   04     24.208  69.434   1.084  0.00  0.00    +0.167 A 
ATOM     14  C20 CHE B   04     24.353  69.406   0.982  0.00  0.00    +0.204 A 
BRANCH   9  16
ATOM     15  C1  CHE B   04     27.524  68.905   8.543  0.00  0.00    +0.277 C 
ATOM     16  O1  CHE B   04     25.340  69.482   3.953  0.00  0.00    -0.491 OA
ENDBRANCH   9  16
BRANCH  13  17
ATOM     17  O3  CHE B   04     26.289  69.210   2.067  0.00  0.00    -0.491 OA
ATOM     18  C19 CHE B   04     26.308  69.189   2.057  0.00  0.00    +0.277 C 
ENDBRANCH  13  17
BRANCH  14  19
ATOM     19  O4  CHE B   04     24.801  69.231  -0.553  0.00  0.00    -0.488 OA
ATOM     20  C21 CHE B   04     25.727  72.736   1.298  0.00  0.00    +0.277 C 
ENDBRANCH  14  19
ENDBRANCH   7  11
ENDBRANCH   1   7
BRANCH   3  21
ATOM     21  O2  CHE B   04     18.080  69.168   6.625  0.00  0.00    -0.454 OA
BRANCH  21  22
ATOM     22  C8  CHE B   04     16.773  68.334   6.730  0.00  0.00    +0.149 A 
ATOM     23  C9  CHE B   04     15.751  67.819   6.457  0.00  0.00    +0.050 A 
ATOM     24  C10 CHE B   04     18.712  67.986  10.658  0.00  0.00    +0.026 A 
ATOM     25  C11 CHE B   04     15.603  67.023   8.275  0.00  0.00    +0.039 A 
ATOM     26  C12 CHE B   04     15.670  66.469   9.809  0.00  0.00    +0.065 C 
ATOM     27  N2  CHE B   04     20.888  68.535  12.650  0.00  0.00    -0.253 NA
ATOM     28  C13 CHE B   04     17.912  68.350   8.469  0.00  0.00    +0.081 A 
ATOM     29  C14 CHE B   04     16.046  68.149   6.068  0.00  0.00    +0.069 C 
ENDBRANCH  21  22
ENDBRANCH   3  21
TORSDOF 7
ENDMDL
MODEL 4
REMARK VINA RESULT:      -8.3      1.891      2.431
REMARK  Name = dock_mp/CHEMBL5/CHEMBL574415.pdb
REMARK  12 active torsions:
REMARK  status: ('A' for Active; 'I' for Inactive)
REMARK    1  A    between atoms: C1_1  and  O1_2
REMARK    2  A    between atoms: O1_2  and  C2_3
REMARK    3  A    between atoms: C4_5  and  N1_6
REMARK    4  A    between atoms: N1_6  and  C5_7
REMARK    5  A    between atoms: C7_9  and  O2_10
REMARK    6  A    between atoms: O2_10  and  C8_11
REMARK    7  A    between atoms: C11_14  and  C12_15
REMARK    8  A    between atoms: C13_17  and  C14_18
REMARK    9  A    between atoms: C18_23  and  O3_24
REMARK   10  A    between atoms: O3_24  and  C19_25
REMARK   11  A    between atoms: C20_26  and  O4_27
REMARK   12  A    between atoms: O4_27  and  C21_28
REMARK                            x       y       z     vdW  Elec       q    Type
REMARK                         _______ _______ _______ _____ _____    ______ ____
ROOT
ATOM      1  C5  CHE B   04     20.353  69.429   6.455  0.00  0.00    +0.126 A 
ATOM      2  C6  CHE B   04     21.145  69.109   7.671  0.00  0.00    +0.090 A 
ATOM      3  C7  CHE B   04     24.465  69.905  10.056  0.00  0.00    +0.133 A 
ATOM      4  C15 CHE B   04     18.558  67.204   7.446  0.00  0.00    +0.066 A 
ATOM      5  C16 CHE B   04     17.766  67.524   6.229  0.00  0.00    +0.116 A 
ATOM      6  N3  CHE B   04     18.661  68.608   5.768  0.00  0.00    -0.240 NA
ENDROOT
BRANCH   1   7
ATOM      7  N1  CHE B   04     19.564  69.787   5.192  0.00  0.00    -0.299 N 
ATOM      8  H5  CHE B   04     20.527  69.640   5.441  0.00  0.00    +0.154 HD
BRANCH   7  11
ATOM      9  C2  CHE B   04     18.973  69.672   2.319  0.00  0.00    +0.167 A 
ATOM     10  C3  CHE B   04     21.757  69.556   3.977  0.00  0.00    +0.073 A 
ATOM     11  C4  CHE B   04     25.676  69.308   4.766  0.00  0.00    +0.040 A 
ATOM     12  C17 CHE B   04     20.901  69.562   2.931  0.00  0.00    +0.073 A 
ATOM     13  C18 CHE B   04     25.031  69.218   2.268  0.00  0.00    +0.167 A 
ATOM     14  C20 CHE B   04     25.057  69.206   2.090  0.00  0.00    +0.204 A 
BRANCH   9  16
ATOM     15  C1  CHE B   04     16.888  69.141   2.014  0.00  0.00    +0.277 C 
ATOM     16  O1  CHE B   04     21.967  69.461   2.535  0.00  0.00    -0.491 OA
ENDBRANCH   9  16
BRANCH  13  17
ATOM     17  O3  CHE B   04     23.224  69.273   0.827  0.00  0.00    -0.491 OA
ATOM     18  C19 CHE B   04     23.227  69.263   0.799  0.00  0.00    +0.277 C 
ENDBRANCH  13  17
BRANCH  14  19
ATOM     19  O4  CHE B   04     26.224  69.058   0.994  0.00  0.00    -0.488 OA
ATOM     20  C21 CHE B   04     25.174  72.820   2.143  0.00  0.00    +0.277 C 
ENDBRANCH  14  19
ENDBRANCH   7  11
ENDBRANCH   1   7
BRANCH   3  21
ATOM     21  O2  CHE B   04     22.724  68.405  10.182  0.00  0.00    -0.454 OA
BRANCH  21  22
ATOM     22  C8  CHE B   04     23.092  68.532  11.686  0.00  0.00    +0.149 A 
ATOM     23  C9  CHE B   04     23.712  68.637  12.681  0.00  0.00    +0.050 A 
ATOM     24  C10 CHE B   04     18.706  68.290  11.560  0.00  0.00    +0.026 A 
ATOM     25  C11 CHE B   04     22.055  68.628  13.782  0.00  0.00    +0.039 A 
ATOM     26  C12 CHE B   04     20.589  68.602  14.498  0.00  0.00    +0.065 C 
ATOM     27  N2  CHE B   04     16.056  68.050  10.172  0.00  0.00    -0.253 NA
ATOM     28  C13 CHE B   04     21.049  68.397  11.319  0.00  0.00    +0.081 A 
ATOM     29  C14 CHE B   04     23.973  68.613  12.152  0.00  0.00    +0.069 C 
ENDBRANCH  21  22
ENDBRANCH   3  21
TORSDOF 7
ENDMDL
MODEL 5
REMARK VINA RESULT:      -6.8      4.112      8.845
REMARK  Name = dock_mp/CHEMBL5/CHEMBL574415.pdb
REMARK  12 active torsions:
REMARK  status: ('A' for Active; 'I' for Inactive)
REMARK    1  A    between atoms: C1_1  and  O1_2
REMARK    2  A    between atoms: O1_2  and  C2_3
REMARK    3  A    between atoms: C4_5  and  N1_6
REMARK    4  A    between atoms: N1_6  and  C5_7
REMARK    5  A    between atoms: C7_9  and  O2_10
REMARK    6  A    between atoms: O2_10  and  C8_11
REMARK    7  A    between atoms: C11_14  and  C12_15
REMARK    8  A    between atoms: C13_17  and  C14_18
REMARK    9  A    between atoms: C18_23  and  O3_24
REMARK   10  A    between atoms: O3_24  and  C19_25
REMARK   11  A    between atoms: C20_26  and  O4_27
REMARK   12  A    between atoms: O4_27  and  C21_28
REMARK                            x       y       z     vdW  Elec       q    Type
REMARK                         _______ _______ _______ _____ _____    ______ ____
ROOT
ATOM      1  C5  CHE B   04     20.577  69.454   8.792  0.00  0.00    +0.126 A 
ATOM      2  C6  CHE B   04     22.041  69.713   8.791  0.00  0.00    +0.090 A 
ATOM      3  C7  CHE B   04     25.583  70.076  10.952  0.00  0.00    +0.133 A 
ATOM      4  C15 CHE B   04     20.841  69.866   5.807  0.00  0.00    +0.066 A 
ATOM      5  C16 CHE B   04     19.377  69.606   5.808  0.00  0.00    +0.116 A 
ATOM      6  N3  CHE B   04     19.277  69.410   7.270  0.00  0.00    -0.240 NA
ENDROOT
BRANCH   1   7
ATOM      7  N1  CHE B   04     19.070  69.182   8.833  0.00  0.00    -0.299 N 
ATOM      8  H5  CHE B   04     19.839  69.169   9.482  0.00  0.00    +0.154 HD
BRANCH   7  11
ATOM      9  C2  CHE B   04     16.559  68.007   9.797  0.00  0.00    +0.167 A 
ATOM     10  C3  CHE B   04     19.421  68.511  11.235  0.00  0.00    +0.073 A 
ATOM     11  C4  CHE B   04     22.282  68.565  14.036  0.00  0.00    +0.040 A 
ATOM     12  C17 CHE B   04     18.135  68.128  11.063  0.00  0.00    +0.073 A 
ATOM     13  C18 CHE B   04     20.023  67.553  14.767  0.00  0.00    +0.167 A 
ATOM     14  C20 CHE B   04     19.903  67.476  14.877  0.00  0.00    +0.204 A 
BRANCH   9  16
ATOM     15  C1  CHE B   04     15.791  68.251   7.779  0.00  0.00    +0.277 C 
ATOM     16  O1  CHE B   04     18.453  67.885  12.131  0.00  0.00    -0.491 OA
ENDBRANCH   9  16
BRANCH  13  17
ATOM     17  O3  CHE B   04     17.889  67.071  14.017  0.00  0.00    -0.491 OA
ATOM     18  C19 CHE B   04     17.869  67.093  14.015  0.00  0.00    +0.277 C 
ENDBRANCH  13  17
BRANCH  14  19
ATOM     19  O4  CHE B   04     19.751  66.928  16.382  0.00  0.00    -0.488 OA
ATOM     20  C21 CHE B   04     22.582  65.202  14.019  0.00  0.00    +0.277 C 
ENDBRANCH  14  19
ENDBRANCH   7  11
ENDBRANCH   1   7
BRANCH   3  21
ATOM     21  O2  CHE B   04     25.040  70.252   8.722  0.00  0.00    -0.454 OA
BRANCH  21  22
ATOM     22  C8  CHE B   04     25.628  68.814   8.753  0.00  0.00    +0.149 A 
ATOM     23  C9  CHE B   04     25.760  67.665   8.969  0.00  0.00    +0.050 A 
ATOM     24  C10 CHE B   04     28.531  71.225   6.502  0.00  0.00    +0.026 A 
ATOM     25  C11 CHE B   04     27.496  67.625   7.998  0.00  0.00    +0.039 A 
ATOM     26  C12 CHE B   04     28.889  67.804   7.165  0.00  0.00    +0.065 C 
ATOM     27  N2  CHE B   04     29.554  73.768   5.280  0.00  0.00    -0.253 NA
ATOM     28  C13 CHE B   04     26.808  70.192   7.738  0.00  0.00    +0.081 A 
ATOM     29  C14 CHE B   04     25.289  67.964   9.159  0.00  0.00    +0.069 C 
ENDBRANCH  21  22
ENDBRANCH   3  21
TORSDOF 7
ENDMDL
MODEL 6
REMARK VINA RESULT:      -6.3      2.820      9.028
REMARK  Name = dock_mp/CHEMBL5/CHEMBL574415.pdb
REMARK  12 active torsions:
REMARK  status: ('A' for Active; 'I' for Inactive)
REMARK    1  A    between atoms: C1_1  and  O1_2
REMARK    2  A    between atoms: O1_2  and  C2_3
REMARK    3  A    between atoms: C4_5  and  N1_6
REMARK    4  A    between atoms: N1_6  and  C5_7
REMARK    5  A    between atoms: C7_9  and  O2_10
REMARK    6  A    between atoms: O2_10  and  C8_11
REMARK    7  A    between atoms: C11_14  and  C12_15
REMARK    8  A    between atoms: C13_17  and  C14_18
REMARK    9  A    between atoms: C18_23  and  O3_24
REMARK   10  A    between atoms: O3_24  and  C19_25
REMARK   11  A    between atoms: C20_26  and  O4_27
REMARK   12  A    between atoms: O4_27  and  C21_28
REMARK                            x       y       z     vdW  Elec       q    Type
REMARK                         _______ _______ _______ _____ _____    ______ ____
ROOT
ATOM      1  C5  CHE B   04     21.687  69.936   8.215  0.00  0.00    +0.126 A 
ATOM      2  C6  CHE B   04     22.757  69.812   7.192  0.00  0.00    +0.090 A 
ATOM      3  C7  CHE B   04     26.797  70.120   6.225  0.00  0.00    +0.133 A 
ATOM      4  C15 CHE B   04     19.881  69.073   5.946  0.00  0.00    +0.066 A 
ATOM      5  C16 CHE B   04     18.810  69.197   6.970  0.00  0.00    +0.116 A 
ATOM      6  N3  CHE B   04     19.717  69.618   8.061  0.00  0.00    -0.240 NA
ENDROOT
BRANCH   1   7
ATOM      7  N1  CHE B   04     20.611  70.075   9.297  0.00  0.00    -0.299 N 
ATOM      8  H5  CHE B   04     21.609  70.185   9.232  0.00  0.00    +0.154 HD
BRANCH   7  11
ATOM      9  C2  CHE B   04     19.789  68.824  11.822  0.00  0.00    +0.167 A 
ATOM     10  C3  CHE B   04     22.613  70.064  10.824  0.00  0.00    +0.073 A 
ATOM     11  C4  CHE B   04     26.453  71.204  10.838  0.00  0.00    +0.040 A 
ATOM     12  C17 CHE B   04     21.697  69.472  11.623  0.00  0.00    +0.073 A 
ATOM     13  C18 CHE B   04     25.611  70.088  13.008  0.00  0.00    +0.167 A 
ATOM     14  C20 CHE B   04     25.620  70.024  13.176  0.00  0.00    +0.204 A 
BRANCH   9  16
ATOM     15  C1  CHE B   04     17.972  67.935  11.026  0.00  0.00    +0.277 C 
ATOM     16  O1  CHE B   04     22.687  69.543  12.186  0.00  0.00    -0.491 OA
ENDBRANCH   9  16
BRANCH  13  17
ATOM     17  O3  CHE B   04     23.745  69.140  13.990  0.00  0.00    -0.491 OA
ATOM     18  C19 CHE B   04     23.746  69.131  14.019  0.00  0.00    +0.277 C 
ENDBRANCH  13  17
BRANCH  14  19
ATOM     19  O4  CHE B   04     26.646  69.842  14.401  0.00  0.00    -0.488 OA
ATOM     20  C21 CHE B   04     25.768  66.554  12.165  0.00  0.00    +0.277 C 
ENDBRANCH  14  19
ENDBRANCH   7  11
ENDBRANCH   1   7
BRANCH   3  21
ATOM     21  O2  CHE B   04     24.906  69.538   5.047  0.00  0.00    -0.454 OA
BRANCH  21  22
ATOM     22  C8  CHE B   04     25.908  69.754   3.879  0.00  0.00    +0.149 A 
ATOM     23  C9  CHE B   04     26.908  69.907   3.277  0.00  0.00    +0.050 A 
ATOM     24  C10 CHE B   04     21.932  69.619   2.014  0.00  0.00    +0.026 A 
ATOM     25  C11 CHE B   04     25.919  70.014   1.553  0.00  0.00    +0.039 A 
ATOM     26  C12 CHE B   04     24.929  70.073   0.257  0.00  0.00    +0.065 C 
ATOM     27  N2  CHE B   04     18.942  69.357   2.051  0.00  0.00    -0.253 NA
ATOM     28  C13 CHE B   04     23.918  69.649   3.284  0.00  0.00    +0.081 A 
ATOM     29  C14 CHE B   04     26.905  69.842   3.863  0.00  0.00    +0.069 C 
ENDBRANCH  21  22
ENDBRANCH   3  21
TORSDOF 7
ENDMDL
MODEL 7
REMARK VINA RESULT:      -6.2      3.238      9.029
REMARK  Name = dock_mp/CHEMBL5/CHEMBL574415.pdb
REMARK  12 active torsions:
REMARK  status: ('A' for Active; 'I' for Inactive)
REMARK    1  A    between atoms: C1_1  and  O1_2
REMARK    2  A    between atoms: O1_2  and  C2_3
REMARK    3  A    between atoms: C4_5  and  N1_6
REMARK    4  A    between atoms: N1_6  and  C5_7
REMARK    5  A    between atoms: C7_9  and  O2_10
REMARK    6  A    between atoms: O2_10  and  C8_11
REMARK    7  A    between atoms: C11_14  and  C12_15
REMARK    8  A    between atoms: C13_17  and  C14_18
REMARK    9  A    between atoms: C18_23  and  O3_24
REMARK   10  A    between atoms: O3_24  and  C19_25
REMARK   11  A    between atoms: C20_26  and  O4_27
REMARK   12  A    between atoms: O4_27  and  C21_28
REMARK                            x       y       z     vdW  Elec       q    Type
REMARK                         _______ _______ _______ _____ _____    ______ ____
ROOT
ATOM      1  C5  CHE B   04     21.730  69.848   8.277  0.00  0.00    +0.126 A 
ATOM      2  C6  CHE B   04     22.912  69.726   7.384  0.00  0.00    +0.090 A 
ATOM      3  C7  CHE B   04     27.053  69.811   6.946  0.00  0.00    +0.133 A 
ATOM      4  C15 CHE B   04     20.176  69.303   5.738  0.00  0.00    +0.066 A 
ATOM      5  C16 CHE B   04     18.994  69.425   6.631  0.00  0.00    +0.116 A 
ATOM      6  N3  CHE B   04     19.779  69.689   7.857  0.00  0.00    -0.240 NA
ENDROOT
BRANCH   1   7
ATOM      7  N1  CHE B   04     20.536  69.981   9.228  0.00  0.00    -0.299 N 
ATOM      8  H5  CHE B   04     21.537  70.070   9.285  0.00  0.00    +0.154 HD
BRANCH   7  11
ATOM      9  C2  CHE B   04     19.408  68.645  11.585  0.00  0.00    +0.167 A 
ATOM     10  C3  CHE B   04     22.347  69.870  10.975  0.00  0.00    +0.073 A 
ATOM     11  C4  CHE B   04     26.174  70.936  11.481  0.00  0.00    +0.040 A 
ATOM     12  C17 CHE B   04     21.335  69.264  11.637  0.00  0.00    +0.073 A 
ATOM     13  C18 CHE B   04     25.069  69.750  13.490  0.00  0.00    +0.167 A 
ATOM     14  C20 CHE B   04     25.058  69.679  13.655  0.00  0.00    +0.204 A 
BRANCH   9  16
ATOM     15  C1  CHE B   04     17.679  67.885  10.509  0.00  0.00    +0.277 C 
ATOM     16  O1  CHE B   04     22.254  69.294  12.313  0.00  0.00    -0.491 OA
ENDBRANCH   9  16
BRANCH  13  17
ATOM     17  O3  CHE B   04     23.088  68.799  14.209  0.00  0.00    -0.491 OA
ATOM     18  C19 CHE B   04     23.064  68.816  14.213  0.00  0.00    +0.277 C 
ENDBRANCH  13  17
BRANCH  14  19
ATOM     19  O4  CHE B   04     25.931  69.428  14.982  0.00  0.00    -0.488 OA
ATOM     20  C21 CHE B   04     26.691  67.077  11.746  0.00  0.00    +0.277 C 
ENDBRANCH  14  19
ENDBRANCH   7  11
ENDBRANCH   1   7
BRANCH   3  21
ATOM     21  O2  CHE B   04     25.294  69.465   5.501  0.00  0.00    -0.454 OA
BRANCH  21  22
ATOM     22  C8  CHE B   04     26.388  68.590   4.826  0.00  0.00    +0.149 A 
ATOM     23  C9  CHE B   04     27.089  67.683   4.563  0.00  0.00    +0.050 A 
ATOM     24  C10 CHE B   04     26.536  72.467   2.761  0.00  0.00    +0.026 A 
ATOM     25  C11 CHE B   04     27.995  68.725   3.131  0.00  0.00    +0.039 A 
ATOM     26  C12 CHE B   04     28.606  69.742   2.010  0.00  0.00    +0.065 C 
ATOM     27  N2  CHE B   04     25.655  75.292   2.259  0.00  0.00    -0.253 NA
ATOM     28  C13 CHE B   04     26.228  70.509   4.040  0.00  0.00    +0.081 A 
ATOM     29  C14 CHE B   04     26.684  67.649   4.990  0.00  0.00    +0.069 C 
ENDBRANCH  21  22
ENDBRANCH   3  21
TORSDOF 7
ENDMDL
