MODEL 1
REMARK VINA RESULT:      -9.9      0.000      0.000
REMARK  Name = dock_mp/CHEMBL5/CHEMBL593951.pdb
REMARK  4 active torsions:
REMARK  status: ('A' for Active; 'I' for Inactive)
REMARK    1  A    between atoms: C1_1  and  N1_2
REMARK    2  A    between atoms: C2_3  and  C3_4
REMARK    3  A    between atoms: C11_14  and  C12_15
REMARK    4  A    between atoms: N4_22  and  C17_23
REMARK                            x       y       z     vdW  Elec       q    Type
REMARK                         _______ _______ _______ _____ _____    ______ ____
ROOT
ATOM      1  C1  CHE B   09     17.547  67.450   5.937  0.00  0.00    +0.171 C 
ATOM      2  N1  CHE B   09     16.965  67.379   5.294  0.00  0.00    -0.283 N 
ATOM      3  C2  CHE B   09     15.407  65.924   7.448  0.00  0.00    +0.078 A 
ATOM      4  C11 CHE B   09     18.344  68.811   2.941  0.00  0.00    +0.074 A 
ATOM      5  C16 CHE B   09     17.608  68.721   2.128  0.00  0.00    +0.275 A 
ATOM      6  O1  CHE B   09     12.498  65.145   5.525  0.00  0.00    -0.266 OA
ATOM      7  N4  CHE B   09     15.467  66.773   4.931  0.00  0.00    -0.252 N 
ATOM      8  C17 CHE B   09     15.568  67.207   3.750  0.00  0.00    +0.174 C 
ENDROOT
BRANCH   3   9
ATOM      9  C3  CHE B   09     18.175  67.528   6.632  0.00  0.00    +0.003 A 
ATOM     10  C4  CHE B   09     21.848  69.493   3.832  0.00  0.00    +0.012 A 
ATOM     11  C5  CHE B   09     20.462  68.928   6.761  0.00  0.00    +0.030 A 
ATOM     12  C6  CHE B   09     19.527  68.543   8.699  0.00  0.00    +0.089 A 
ATOM     13  N2  CHE B   09     20.190  69.041   9.713  0.00  0.00    -0.252 NA
ATOM     14  C7  CHE B   09     19.231  68.637  11.611  0.00  0.00    +0.131 A 
ATOM     15  C8  CHE B   09     22.443  70.257   8.107  0.00  0.00    +0.131 A 
ATOM     16  N3  CHE B   09     16.954  67.245  11.497  0.00  0.00    -0.252 NA
ATOM     17  C9  CHE B   09     19.984  68.728   7.715  0.00  0.00    +0.090 A 
ATOM     18  C10 CHE B   09     15.861  66.424   9.825  0.00  0.00    +0.040 A 
ENDBRANCH   3   9
BRANCH   4  19
ATOM     19  C12 CHE B   09     19.568  69.804   1.710  0.00  0.00    -0.004 A 
ATOM     20  C13 CHE B   09     17.937  67.859   3.398  0.00  0.00    +0.016 A 
ATOM     21  C14 CHE B   09     14.820  65.503   6.520  0.00  0.00    +0.046 A 
ATOM     22  S1  CHE B   09     18.754  69.755   2.481  0.00  0.00    -0.104 S 
ATOM     23  C15 CHE B   09     15.609  67.460   5.625  0.00  0.00    +0.054 A 
ENDBRANCH   4  19
TORSDOF 2
ENDMDL
MODEL 2
REMARK VINA RESULT:      -9.1      2.928      5.346
REMARK  Name = dock_mp/CHEMBL5/CHEMBL593951.pdb
REMARK  4 active torsions:
REMARK  status: ('A' for Active; 'I' for Inactive)
REMARK    1  A    between atoms: C1_1  and  N1_2
REMARK    2  A    between atoms: C2_3  and  C3_4
REMARK    3  A    between atoms: C11_14  and  C12_15
REMARK    4  A    between atoms: N4_22  and  C17_23
REMARK                            x       y       z     vdW  Elec       q    Type
REMARK                         _______ _______ _______ _____ _____    ______ ____
ROOT
ATOM      1  C1  CHE B   09     17.542  68.015   7.528  0.00  0.00    +0.171 C 
ATOM      2  N1  CHE B   09     17.077  67.430   7.973  0.00  0.00    -0.283 N 
ATOM      3  C2  CHE B   09     18.649  68.587  10.292  0.00  0.00    +0.078 A 
ATOM      4  C11 CHE B   09     15.360  66.092   5.794  0.00  0.00    +0.074 A 
ATOM      5  C16 CHE B   09     14.772  65.353   6.358  0.00  0.00    +0.275 A 
ATOM      6  O1  CHE B   09     17.263  66.572  12.896  0.00  0.00    -0.266 OA
ATOM      7  N4  CHE B   09     16.818  66.833   9.496  0.00  0.00    -0.252 N 
ATOM      8  C17 CHE B   09     15.959  66.026   9.045  0.00  0.00    +0.174 C 
ENDROOT
BRANCH   3   9
ATOM      9  C3  CHE B   09     18.045  68.646   7.046  0.00  0.00    +0.003 A 
ATOM     10  C4  CHE B   09     15.579  68.272   2.690  0.00  0.00    +0.012 A 
ATOM     11  C5  CHE B   09     18.324  68.907   4.389  0.00  0.00    +0.030 A 
ATOM     12  C6  CHE B   09     20.138  69.324   5.533  0.00  0.00    +0.089 A 
ATOM     13  N2  CHE B   09     21.165  69.657   4.791  0.00  0.00    -0.252 NA
ATOM     14  C7  CHE B   09     22.940  70.062   5.963  0.00  0.00    +0.131 A 
ATOM     15  C8  CHE B   09     19.761  69.457   2.123  0.00  0.00    +0.131 A 
ATOM     16  N3  CHE B   09     22.676  69.807   8.609  0.00  0.00    -0.252 NA
ATOM     17  C9  CHE B   09     19.215  69.110   4.972  0.00  0.00    +0.090 A 
ATOM     18  C10 CHE B   09     20.983  69.259   9.833  0.00  0.00    +0.040 A 
ENDBRANCH   3   9
BRANCH   4  19
ATOM     19  C12 CHE B   09     14.460  65.506   4.107  0.00  0.00    -0.004 A 
ATOM     20  C13 CHE B   09     15.435  66.744   6.716  0.00  0.00    +0.016 A 
ATOM     21  C14 CHE B   09     17.790  68.108  10.912  0.00  0.00    +0.046 A 
ATOM     22  S1  CHE B   09     15.278  65.447   4.873  0.00  0.00    -0.104 S 
ATOM     23  C15 CHE B   09     17.682  66.764   9.059  0.00  0.00    +0.054 A 
ENDBRANCH   4  19
TORSDOF 2
ENDMDL
MODEL 3
REMARK VINA RESULT:      -8.9      3.011      5.782
REMARK  Name = dock_mp/CHEMBL5/CHEMBL593951.pdb
REMARK  4 active torsions:
REMARK  status: ('A' for Active; 'I' for Inactive)
REMARK    1  A    between atoms: C1_1  and  N1_2
REMARK    2  A    between atoms: C2_3  and  C3_4
REMARK    3  A    between atoms: C11_14  and  C12_15
REMARK    4  A    between atoms: N4_22  and  C17_23
REMARK                            x       y       z     vdW  Elec       q    Type
REMARK                         _______ _______ _______ _____ _____    ______ ____
ROOT
ATOM      1  C1  CHE B   09     18.738  68.829   6.398  0.00  0.00    +0.171 C 
ATOM      2  N1  CHE B   09     18.081  68.460   5.963  0.00  0.00    -0.283 N 
ATOM      3  C2  CHE B   09     19.485  69.747   3.606  0.00  0.00    +0.078 A 
ATOM      4  C11 CHE B   09     16.472  67.058   8.185  0.00  0.00    +0.074 A 
ATOM      5  C16 CHE B   09     15.642  66.590   7.636  0.00  0.00    +0.275 A 
ATOM      6  O1  CHE B   09     17.255  68.659   1.036  0.00  0.00    -0.266 OA
ATOM      7  N4  CHE B   09     17.444  68.267   4.447  0.00  0.00    -0.252 N 
ATOM      8  C17 CHE B   09     16.503  67.572   4.919  0.00  0.00    +0.174 C 
ENDROOT
BRANCH   3   9
ATOM      9  C3  CHE B   09     19.447  69.229   6.867  0.00  0.00    +0.003 A 
ATOM     10  C4  CHE B   09     17.704  68.477  11.513  0.00  0.00    +0.012 A 
ATOM     11  C5  CHE B   09     20.208  68.830   9.410  0.00  0.00    +0.030 A 
ATOM     12  C6  CHE B   09     21.860  69.067   7.999  0.00  0.00    +0.089 A 
ATOM     13  N2  CHE B   09     23.044  68.988   8.555  0.00  0.00    -0.252 NA
ATOM     14  C7  CHE B   09     24.650  69.228   7.123  0.00  0.00    +0.131 A 
ATOM     15  C8  CHE B   09     22.084  68.531  11.383  0.00  0.00    +0.131 A 
ATOM     16  N3  CHE B   09     23.907  69.625   4.588  0.00  0.00    -0.252 NA
ATOM     17  C9  CHE B   09     21.016  68.950   8.696  0.00  0.00    +0.090 A 
ATOM     18  C10 CHE B   09     21.955  69.756   3.672  0.00  0.00    +0.040 A 
ENDBRANCH   3   9
BRANCH   4  19
ATOM     19  C12 CHE B   09     15.745  66.317   9.895  0.00  0.00    -0.004 A 
ATOM     20  C13 CHE B   09     16.529  67.851   7.380  0.00  0.00    +0.016 A 
ATOM     21  C14 CHE B   09     18.432  69.586   3.093  0.00  0.00    +0.046 A 
ATOM     22  S1  CHE B   09     16.410  66.272   8.991  0.00  0.00    -0.104 S 
ATOM     23  C15 CHE B   09     18.354  67.951   4.697  0.00  0.00    +0.054 A 
ENDBRANCH   4  19
TORSDOF 2
ENDMDL
MODEL 4
REMARK VINA RESULT:      -8.6      2.706      5.785
REMARK  Name = dock_mp/CHEMBL5/CHEMBL593951.pdb
REMARK  4 active torsions:
REMARK  status: ('A' for Active; 'I' for Inactive)
REMARK    1  A    between atoms: C1_1  and  N1_2
REMARK    2  A    between atoms: C2_3  and  C3_4
REMARK    3  A    between atoms: C11_14  and  C12_15
REMARK    4  A    between atoms: N4_22  and  C17_23
REMARK                            x       y       z     vdW  Elec       q    Type
REMARK                         _______ _______ _______ _____ _____    ______ ____
ROOT
ATOM      1  C1  CHE B   09     17.845  68.031   7.162  0.00  0.00    +0.171 C 
ATOM      2  N1  CHE B   09     17.140  67.532   7.263  0.00  0.00    -0.283 N 
ATOM      3  C2  CHE B   09     17.003  67.869   4.254  0.00  0.00    +0.078 A 
ATOM      4  C11 CHE B   09     17.059  67.039  10.303  0.00  0.00    +0.074 A 
ATOM      5  C16 CHE B   09     16.167  66.407  10.430  0.00  0.00    +0.275 A 
ATOM      6  O1  CHE B   09     14.061  65.930   3.664  0.00  0.00    -0.266 OA
ATOM      7  N4  CHE B   09     15.908  66.804   6.429  0.00  0.00    -0.252 N 
ATOM      8  C17 CHE B   09     15.446  66.332   7.504  0.00  0.00    +0.174 C 
ENDROOT
BRANCH   3   9
ATOM      9  C3  CHE B   09     18.607  68.571   7.054  0.00  0.00    +0.003 A 
ATOM     10  C4  CHE B   09     19.597  68.987  11.957  0.00  0.00    +0.012 A 
ATOM     11  C5  CHE B   09     20.465  69.391   8.810  0.00  0.00    +0.030 A 
ATOM     12  C6  CHE B   09     21.025  69.652   6.714  0.00  0.00    +0.089 A 
ATOM     13  N2  CHE B   09     22.211  70.183   6.547  0.00  0.00    -0.252 NA
ATOM     14  C7  CHE B   09     22.726  70.424   4.457  0.00  0.00    +0.131 A 
ATOM     15  C8  CHE B   09     22.892  70.471   9.477  0.00  0.00    +0.131 A 
ATOM     16  N3  CHE B   09     20.887  69.612   2.699  0.00  0.00    -0.252 NA
ATOM     17  C9  CHE B   09     20.727  69.514   7.764  0.00  0.00    +0.090 A 
ATOM     18  C10 CHE B   09     18.931  68.737   2.974  0.00  0.00    +0.040 A 
ENDBRANCH   3   9
BRANCH   4  19
ATOM     19  C12 CHE B   09     17.374  66.973  12.276  0.00  0.00    -0.004 A 
ATOM     20  C13 CHE B   09     17.191  66.639   9.252  0.00  0.00    +0.016 A 
ATOM     21  C14 CHE B   09     16.321  66.924   4.335  0.00  0.00    +0.046 A 
ATOM     22  S1  CHE B   09     16.932  67.430  11.352  0.00  0.00    -0.104 S 
ATOM     23  C15 CHE B   09     16.024  67.773   6.443  0.00  0.00    +0.054 A 
ENDBRANCH   4  19
TORSDOF 2
ENDMDL
MODEL 5
REMARK VINA RESULT:      -8.5      3.365      6.620
REMARK  Name = dock_mp/CHEMBL5/CHEMBL593951.pdb
REMARK  4 active torsions:
REMARK  status: ('A' for Active; 'I' for Inactive)
REMARK    1  A    between atoms: C1_1  and  N1_2
REMARK    2  A    between atoms: C2_3  and  C3_4
REMARK    3  A    between atoms: C11_14  and  C12_15
REMARK    4  A    between atoms: N4_22  and  C17_23
REMARK                            x       y       z     vdW  Elec       q    Type
REMARK                         _______ _______ _______ _____ _____    ______ ____
ROOT
ATOM      1  C1  CHE B   09     19.050  68.795   6.341  0.00  0.00    +0.171 C 
ATOM      2  N1  CHE B   09     19.853  68.963   6.050  0.00  0.00    -0.283 N 
ATOM      3  C2  CHE B   09     18.367  69.310   3.432  0.00  0.00    +0.078 A 
ATOM      4  C11 CHE B   09     21.588  68.668   8.579  0.00  0.00    +0.074 A 
ATOM      5  C16 CHE B   09     22.603  68.880   8.211  0.00  0.00    +0.275 A 
ATOM      6  O1  CHE B   09     21.168  70.116   1.366  0.00  0.00    -0.266 OA
ATOM      7  N4  CHE B   09     20.708  69.361   4.689  0.00  0.00    -0.252 N 
ATOM      8  C17 CHE B   09     21.781  69.366   5.353  0.00  0.00    +0.174 C 
ENDROOT
BRANCH   3   9
ATOM      9  C3  CHE B   09     18.183  68.613   6.654  0.00  0.00    +0.003 A 
ATOM     10  C4  CHE B   09     19.208  68.668  11.568  0.00  0.00    +0.012 A 
ATOM     11  C5  CHE B   09     17.437  67.581   9.017  0.00  0.00    +0.030 A 
ATOM     12  C6  CHE B   09     16.271  66.870   7.312  0.00  0.00    +0.089 A 
ATOM     13  N2  CHE B   09     15.333  66.014   7.634  0.00  0.00    -0.252 NA
ATOM     14  C7  CHE B   09     14.202  65.335   5.917  0.00  0.00    +0.131 A 
ATOM     15  C8  CHE B   09     15.879  65.984  10.606  0.00  0.00    +0.131 A 
ATOM     16  N3  CHE B   09     14.934  66.355   3.559  0.00  0.00    -0.252 NA
ATOM     17  C9  CHE B   09     16.868  67.238   8.159  0.00  0.00    +0.090 A 
ATOM     18  C10 CHE B   09     16.480  67.766   3.027  0.00  0.00    +0.040 A 
ENDBRANCH   3   9
BRANCH   4  19
ATOM     19  C12 CHE B   09     22.323  68.383  10.417  0.00  0.00    -0.004 A 
ATOM     20  C13 CHE B   09     21.163  69.323   7.759  0.00  0.00    +0.016 A 
ATOM     21  C14 CHE B   09     19.340  69.893   3.137  0.00  0.00    +0.046 A 
ATOM     22  S1  CHE B   09     22.012  68.023   9.400  0.00  0.00    -0.104 S 
ATOM     23  C15 CHE B   09     20.197  68.525   4.764  0.00  0.00    +0.054 A 
ENDBRANCH   4  19
TORSDOF 2
ENDMDL
MODEL 6
REMARK VINA RESULT:      -8.5      3.873      7.727
REMARK  Name = dock_mp/CHEMBL5/CHEMBL593951.pdb
REMARK  4 active torsions:
REMARK  status: ('A' for Active; 'I' for Inactive)
REMARK    1  A    between atoms: C1_1  and  N1_2
REMARK    2  A    between atoms: C2_3  and  C3_4
REMARK    3  A    between atoms: C11_14  and  C12_15
REMARK    4  A    between atoms: N4_22  and  C17_23
REMARK                            x       y       z     vdW  Elec       q    Type
REMARK                         _______ _______ _______ _____ _____    ______ ____
ROOT
ATOM      1  C1  CHE B   09     20.203  68.821   6.175  0.00  0.00    +0.171 C 
ATOM      2  N1  CHE B   09     20.951  69.184   6.433  0.00  0.00    -0.283 N 
ATOM      3  C2  CHE B   09     21.337  69.489   3.443  0.00  0.00    +0.078 A 
ATOM      4  C11 CHE B   09     20.797  68.991   9.504  0.00  0.00    +0.074 A 
ATOM      5  C16 CHE B   09     21.742  69.449   9.831  0.00  0.00    +0.275 A 
ATOM      6  O1  CHE B   09     24.536  71.078   3.508  0.00  0.00    -0.266 OA
ATOM      7  N4  CHE B   09     22.337  69.894   5.871  0.00  0.00    -0.252 N 
ATOM      8  C17 CHE B   09     22.747  70.054   7.054  0.00  0.00    +0.174 C 
ENDROOT
BRANCH   3   9
ATOM      9  C3  CHE B   09     19.396  68.430   5.895  0.00  0.00    +0.003 A 
ATOM     10  C4  CHE B   09     17.927  66.978  10.470  0.00  0.00    +0.012 A 
ATOM     11  C5  CHE B   09     17.274  67.579   7.302  0.00  0.00    +0.030 A 
ATOM     12  C6  CHE B   09     16.858  67.983   5.196  0.00  0.00    +0.089 A 
ATOM     13  N2  CHE B   09     15.613  67.763   4.852  0.00  0.00    -0.252 NA
ATOM     14  C7  CHE B   09     15.244  68.176   2.759  0.00  0.00    +0.131 A 
ATOM     15  C8  CHE B   09     14.641  66.876   7.572  0.00  0.00    +0.131 A 
ATOM     16  N3  CHE B   09     17.346  69.024   1.347  0.00  0.00    -0.252 NA
ATOM     17  C9  CHE B   09     17.085  67.784   6.254  0.00  0.00    +0.090 A 
ATOM     18  C10 CHE B   09     19.399  69.386   1.913  0.00  0.00    +0.040 A 
ENDBRANCH   3   9
BRANCH   4  19
ATOM     19  C12 CHE B   09     20.301  68.673  11.415  0.00  0.00    -0.004 A 
ATOM     20  C13 CHE B   09     21.265  68.674   8.523  0.00  0.00    +0.016 A 
ATOM     21  C14 CHE B   09     22.442  69.602   3.752  0.00  0.00    +0.046 A 
ATOM     22  S1  CHE B   09     20.333  69.299  10.484  0.00  0.00    -0.104 S 
ATOM     23  C15 CHE B   09     21.481  70.290   5.716  0.00  0.00    +0.054 A 
ENDBRANCH   4  19
TORSDOF 2
ENDMDL
MODEL 7
REMARK VINA RESULT:      -8.5      2.937      6.058
REMARK  Name = dock_mp/CHEMBL5/CHEMBL593951.pdb
REMARK  4 active torsions:
REMARK  status: ('A' for Active; 'I' for Inactive)
REMARK    1  A    between atoms: C1_1  and  N1_2
REMARK    2  A    between atoms: C2_3  and  C3_4
REMARK    3  A    between atoms: C11_14  and  C12_15
REMARK    4  A    between atoms: N4_22  and  C17_23
REMARK                            x       y       z     vdW  Elec       q    Type
REMARK                         _______ _______ _______ _____ _____    ______ ____
ROOT
ATOM      1  C1  CHE B   09     18.894  68.712   8.547  0.00  0.00    +0.171 C 
ATOM      2  N1  CHE B   09     19.307  68.601   9.305  0.00  0.00    -0.283 N 
ATOM      3  C2  CHE B   09     16.493  68.001  10.256  0.00  0.00    +0.078 A 
ATOM      4  C11 CHE B   09     22.249  69.166   8.588  0.00  0.00    +0.074 A 
ATOM      5  C16 CHE B   09     22.771  69.026   9.546  0.00  0.00    +0.275 A 
ATOM      6  O1  CHE B   09     17.250  67.345  13.685  0.00  0.00    -0.266 OA
ATOM      7  N4  CHE B   09     19.063  68.214  10.896  0.00  0.00    -0.252 N 
ATOM      8  C17 CHE B   09     20.299  68.334  11.125  0.00  0.00    +0.174 C 
ENDROOT
BRANCH   3   9
ATOM      9  C3  CHE B   09     18.448  68.832   7.728  0.00  0.00    +0.003 A 
ATOM     10  C4  CHE B   09     22.341  70.727   5.188  0.00  0.00    +0.012 A 
ATOM     11  C5  CHE B   09     19.456  69.147   5.260  0.00  0.00    +0.030 A 
ATOM     12  C6  CHE B   09     17.539  68.100   5.327  0.00  0.00    +0.089 A 
ATOM     13  N2  CHE B   09     17.093  67.741   4.149  0.00  0.00    -0.252 NA
ATOM     14  C7  CHE B   09     15.194  66.707   4.260  0.00  0.00    +0.131 A 
ATOM     15  C8  CHE B   09     19.396  68.851   2.538  0.00  0.00    +0.131 A 
ATOM     16  N3  CHE B   09     14.180  66.386   6.710  0.00  0.00    -0.252 NA
ATOM     17  C9  CHE B   09     18.504  68.629   5.312  0.00  0.00    +0.090 A 
ATOM     18  C10 CHE B   09     14.915  66.978   8.652  0.00  0.00    +0.040 A 
ENDBRANCH   3   9
BRANCH   4  19
ATOM     19  C12 CHE B   09     23.994  69.602   7.713  0.00  0.00    -0.004 A 
ATOM     20  C13 CHE B   09     21.316  69.453   9.160  0.00  0.00    +0.016 A 
ATOM     21  C14 CHE B   09     16.971  68.225  11.311  0.00  0.00    +0.046 A 
ATOM     22  S1  CHE B   09     23.182  68.890   8.019  0.00  0.00    -0.104 S 
ATOM     23  C15 CHE B   09     18.845  67.595  10.152  0.00  0.00    +0.054 A 
ENDBRANCH   4  19
TORSDOF 2
ENDMDL
MODEL 8
REMARK VINA RESULT:      -8.4      3.267      5.555
REMARK  Name = dock_mp/CHEMBL5/CHEMBL593951.pdb
REMARK  4 active torsions:
REMARK  status: ('A' for Active; 'I' for Inactive)
REMARK    1  A    between atoms: C1_1  and  N1_2
REMARK    2  A    between atoms: C2_3  and  C3_4
REMARK    3  A    between atoms: C11_14  and  C12_15
REMARK    4  A    between atoms: N4_22  and  C17_23
REMARK                            x       y       z     vdW  Elec       q    Type
REMARK                         _______ _______ _______ _____ _____    ______ ____
ROOT
ATOM      1  C1  CHE B   09     19.558  68.454   6.194  0.00  0.00    +0.171 C 
ATOM      2  N1  CHE B   09     19.631  68.786   5.393  0.00  0.00    -0.283 N 
ATOM      3  C2  CHE B   09     22.266  69.780   6.513  0.00  0.00    +0.078 A 
ATOM      4  C11 CHE B   09     17.020  67.895   4.024  0.00  0.00    +0.074 A 
ATOM      5  C16 CHE B   09     17.112  68.314   3.011  0.00  0.00    +0.275 A 
ATOM      6  O1  CHE B   09     23.445  71.474   3.597  0.00  0.00    -0.266 OA
ATOM      7  N4  CHE B   09     20.633  69.675   4.419  0.00  0.00    -0.252 N 
ATOM      8  C17 CHE B   09     19.808  69.583   3.469  0.00  0.00    +0.174 C 
ENDROOT
BRANCH   3   9
ATOM      9  C3  CHE B   09     19.479  68.095   7.059  0.00  0.00    +0.003 A 
ATOM     10  C4  CHE B   09     15.350  65.378   6.184  0.00  0.00    +0.012 A 
ATOM     11  C5  CHE B   09     17.379  66.930   8.258  0.00  0.00    +0.030 A 
ATOM     12  C6  CHE B   09     18.737  67.966   9.621  0.00  0.00    +0.089 A 
ATOM     13  N2  CHE B   09     18.373  67.902  10.877  0.00  0.00    -0.252 NA
ATOM     14  C7  CHE B   09     19.744  68.941  12.192  0.00  0.00    +0.131 A 
ATOM     15  C8  CHE B   09     15.869  66.267  10.445  0.00  0.00    +0.131 A 
ATOM     16  N3  CHE B   09     21.839  70.105  11.013  0.00  0.00    -0.252 NA
ATOM     17  C9  CHE B   09     18.063  67.449   8.920  0.00  0.00    +0.090 A 
ATOM     18  C10 CHE B   09     22.439  70.210   8.941  0.00  0.00    +0.040 A 
ENDBRANCH   3   9
BRANCH   4  19
ATOM     19  C12 CHE B   09     15.240  67.126   3.532  0.00  0.00    -0.004 A 
ATOM     20  C13 CHE B   09     18.151  67.868   4.050  0.00  0.00    +0.016 A 
ATOM     21  C14 CHE B   09     22.533  69.902   5.341  0.00  0.00    +0.046 A 
ATOM     22  S1  CHE B   09     15.893  67.913   3.994  0.00  0.00    -0.104 S 
ATOM     23  C15 CHE B   09     20.243  70.003   5.315  0.00  0.00    +0.054 A 
ENDBRANCH   4  19
TORSDOF 2
ENDMDL
MODEL 9
REMARK VINA RESULT:      -8.4      3.394      6.110
REMARK  Name = dock_mp/CHEMBL5/CHEMBL593951.pdb
REMARK  4 active torsions:
REMARK  status: ('A' for Active; 'I' for Inactive)
REMARK    1  A    between atoms: C1_1  and  N1_2
REMARK    2  A    between atoms: C2_3  and  C3_4
REMARK    3  A    between atoms: C11_14  and  C12_15
REMARK    4  A    between atoms: N4_22  and  C17_23
REMARK                            x       y       z     vdW  Elec       q    Type
REMARK                         _______ _______ _______ _____ _____    ______ ____
ROOT
ATOM      1  C1  CHE B   09     20.266  69.566   7.664  0.00  0.00    +0.171 C 
ATOM      2  N1  CHE B   09     21.107  69.781   7.619  0.00  0.00    -0.283 N 
ATOM      3  C2  CHE B   09     20.806  69.846  10.634  0.00  0.00    +0.078 A 
ATOM      4  C11 CHE B   09     21.671  69.784   4.590  0.00  0.00    +0.074 A 
ATOM      5  C16 CHE B   09     22.735  70.057   4.534  0.00  0.00    +0.275 A 
ATOM      6  O1  CHE B   09     24.162  70.755  11.456  0.00  0.00    -0.266 OA
ATOM      7  N4  CHE B   09     22.422  70.166   8.549  0.00  0.00    -0.252 N 
ATOM      8  C17 CHE B   09     23.129  70.300   7.512  0.00  0.00    +0.174 C 
ENDROOT
BRANCH   3   9
ATOM      9  C3  CHE B   09     19.357  69.332   7.712  0.00  0.00    +0.003 A 
ATOM     10  C4  CHE B   09     18.427  69.593   2.786  0.00  0.00    +0.012 A 
ATOM     11  C5  CHE B   09     17.696  68.466   5.789  0.00  0.00    +0.030 A 
ATOM     12  C6  CHE B   09     17.224  67.727   7.790  0.00  0.00    +0.089 A 
ATOM     13  N2  CHE B   09     16.178  66.940   7.829  0.00  0.00    -0.252 NA
ATOM     14  C7  CHE B   09     15.747  66.230   9.829  0.00  0.00    +0.131 A 
ATOM     15  C8  CHE B   09     15.544  67.039   4.877  0.00  0.00    +0.131 A 
ATOM     16  N3  CHE B   09     17.392  67.084  11.752  0.00  0.00    -0.252 NA
ATOM     17  C9  CHE B   09     17.476  68.109   6.789  0.00  0.00    +0.090 A 
ATOM     18  C10 CHE B   09     19.117  68.383  11.688  0.00  0.00    +0.040 A 
ENDBRANCH   3   9
BRANCH   4  19
ATOM     19  C12 CHE B   09     21.604  69.672   2.595  0.00  0.00    -0.004 A 
ATOM     20  C13 CHE B   09     21.579  70.349   5.566  0.00  0.00    +0.016 A 
ATOM     21  C14 CHE B   09     21.780  70.488  10.562  0.00  0.00    +0.046 A 
ATOM     22  S1  CHE B   09     21.759  69.228   3.614  0.00  0.00    -0.104 S 
ATOM     23  C15 CHE B   09     21.976  69.299   8.612  0.00  0.00    +0.054 A 
ENDBRANCH   4  19
TORSDOF 2
ENDMDL
MODEL 10
REMARK VINA RESULT:      -8.3      3.143      5.629
REMARK  Name = dock_mp/CHEMBL5/CHEMBL593951.pdb
REMARK  4 active torsions:
REMARK  status: ('A' for Active; 'I' for Inactive)
REMARK    1  A    between atoms: C1_1  and  N1_2
REMARK    2  A    between atoms: C2_3  and  C3_4
REMARK    3  A    between atoms: C11_14  and  C12_15
REMARK    4  A    between atoms: N4_22  and  C17_23
REMARK                            x       y       z     vdW  Elec       q    Type
REMARK                         _______ _______ _______ _____ _____    ______ ____
ROOT
ATOM      1  C1  CHE B   09     18.954  68.532   6.623  0.00  0.00    +0.171 C 
ATOM      2  N1  CHE B   09     18.828  68.399   5.773  0.00  0.00    -0.283 N 
ATOM      3  C2  CHE B   09     21.514  69.791   5.598  0.00  0.00    +0.078 A 
ATOM      4  C11 CHE B   09     16.102  66.966   5.684  0.00  0.00    +0.074 A 
ATOM      5  C16 CHE B   09     15.943  66.799   4.608  0.00  0.00    +0.275 A 
ATOM      6  O1  CHE B   09     21.892  69.711   2.046  0.00  0.00    -0.266 OA
ATOM      7  N4  CHE B   09     19.511  68.640   4.284  0.00  0.00    -0.252 N 
ATOM      8  C17 CHE B   09     18.525  68.081   3.729  0.00  0.00    +0.174 C 
ENDROOT
BRANCH   3   9
ATOM      9  C3  CHE B   09     19.090  68.675   7.542  0.00  0.00    +0.003 A 
ATOM     10  C4  CHE B   09     14.601  66.952   8.983  0.00  0.00    +0.012 A 
ATOM     11  C5  CHE B   09     17.683  67.867   9.680  0.00  0.00    +0.030 A 
ATOM     12  C6  CHE B   09     19.733  68.478  10.126  0.00  0.00    +0.089 A 
ATOM     13  N2  CHE B   09     20.049  68.381  11.394  0.00  0.00    -0.252 NA
ATOM     14  C7  CHE B   09     22.087  68.995  11.791  0.00  0.00    +0.131 A 
ATOM     15  C8  CHE B   09     17.379  67.340  12.351  0.00  0.00    +0.131 A 
ATOM     16  N3  CHE B   09     23.498  69.802   9.672  0.00  0.00    -0.252 NA
ATOM     17  C9  CHE B   09     18.703  68.173   9.884  0.00  0.00    +0.090 A 
ATOM     18  C10 CHE B   09     22.978  69.962   7.582  0.00  0.00    +0.040 A 
ENDBRANCH   3   9
BRANCH   4  19
ATOM     19  C12 CHE B   09     14.351  66.081   6.071  0.00  0.00    -0.004 A 
ATOM     20  C13 CHE B   09     16.736  67.874   5.449  0.00  0.00    +0.016 A 
ATOM     21  C14 CHE B   09     21.180  69.960   4.492  0.00  0.00    +0.046 A 
ATOM     22  S1  CHE B   09     15.463  66.068   5.918  0.00  0.00    -0.104 S 
ATOM     23  C15 CHE B   09     19.939  68.092   4.967  0.00  0.00    +0.054 A 
ENDBRANCH   4  19
TORSDOF 2
ENDMDL
