MODEL 1
REMARK VINA RESULT:     -10.5      0.000      0.000
REMARK  Name = dock_mp/CHEMBL5/CHEMBL517068.pdb
REMARK  4 active torsions:
REMARK  status: ('A' for Active; 'I' for Inactive)
REMARK    1  A    between atoms: C1_1  and  C2_2
REMARK    2  A    between atoms: C4_7  and  C5_8
REMARK    3  A    between atoms: C9_13  and  C10_14
REMARK    4  A    between atoms: C11_16  and  C12_17
REMARK                            x       y       z     vdW  Elec       q    Type
REMARK                         _______ _______ _______ _____ _____    ______ ____
ROOT
ATOM      1  C1  CHE B   00     17.457  68.451  12.958  0.00  0.00    +0.109 C 
ATOM      2  C2  CHE B   00     23.215  70.408   9.335  0.00  0.00    +0.216 C 
ATOM      3  O1  CHE B   00     21.591  69.857  10.425  0.00  0.00    -0.276 OA
ATOM      4  N1  CHE B   00     16.604  68.102  10.709  0.00  0.00    -0.256 N 
ATOM      5  C3  CHE B   00     20.629  69.463   7.890  0.00  0.00    +0.200 A 
ATOM      6  N2  CHE B   00     21.916  69.876   5.911  0.00  0.00    -0.212 NA
ATOM      7  C4  CHE B   00     20.813  69.481   5.688  0.00  0.00    +0.117 A 
ATOM      8  C11 CHE B   00     15.024  67.512   9.228  0.00  0.00    +0.078 A 
ATOM      9  N7  CHE B   00     16.317  67.984   9.950  0.00  0.00    -0.325 N 
ATOM     10  H4  CHE B   00     17.385  68.364  10.081  0.00  0.00    +0.158 HD
ATOM     11  H14 CHE B   00     18.386  68.717  10.035  0.00  0.00    +0.169 HD
ENDROOT
BRANCH   8  12
ATOM     12  C12 CHE B   00     21.080  69.590   6.392  0.00  0.00    +0.019 A 
ATOM     13  C13 CHE B   00     18.867  67.998   7.851  0.00  0.00    +0.015 A 
ATOM     14  C14 CHE B   00     15.514  66.613   9.540  0.00  0.00    +0.049 A 
ATOM     15  C15 CHE B   00     17.795  68.080   8.124  0.00  0.00    +0.156 A 
ATOM     16  N4  CHE B   00     17.772  68.122   8.110  0.00  0.00    -0.215 NA
ATOM     17  C16 CHE B   00     16.572  68.439   8.302  0.00  0.00    +0.246 A 
ATOM     18  N5  CHE B   00     22.349  71.031   5.288  0.00  0.00    -0.154 NA
ATOM     19  N6  CHE B   00     21.717  70.306   5.841  0.00  0.00    -0.220 N 
ATOM     20  C17 CHE B   00     18.249  69.132   7.458  0.00  0.00    +0.124 A 
ENDBRANCH   8  12
BRANCH   7  21
ATOM     21  C5  CHE B   00     17.685  68.372   5.502  0.00  0.00    +0.092 A 
ATOM     22  C6  CHE B   00     17.486  68.333   5.012  0.00  0.00    +0.033 A 
ATOM     23  C7  CHE B   00     16.115  67.900   4.143  0.00  0.00    +0.042 A 
ATOM     24  C8  CHE B   00     18.393  68.842   2.242  0.00  0.00    +0.144 A 
ATOM     25  F1  CHE B   00     17.900  68.746   1.032  0.00  0.00    -0.204 F 
ATOM     26  C9  CHE B   00     21.186  69.886   1.607  0.00  0.00    +0.074 A 
ATOM     27  C10 CHE B   00     15.664  67.811   3.035  0.00  0.00    +0.068 C 
ATOM     28  N3  CHE B   00     18.237  68.646   4.357  0.00  0.00    -0.247 NA
ENDBRANCH   7  21
TORSDOF 2
ENDMDL
MODEL 2
REMARK VINA RESULT:     -10.1      1.982      5.517
REMARK  Name = dock_mp/CHEMBL5/CHEMBL517068.pdb
REMARK  4 active torsions:
REMARK  status: ('A' for Active; 'I' for Inactive)
REMARK    1  A    between atoms: C1_1  and  C2_2
REMARK    2  A    between atoms: C4_7  and  C5_8
REMARK    3  A    between atoms: C9_13  and  C10_14
REMARK    4  A    between atoms: C11_16  and  C12_17
REMARK                            x       y       z     vdW  Elec       q    Type
REMARK                         _______ _______ _______ _____ _____    ______ ____
ROOT
ATOM      1  C1  CHE B   00     22.964  70.973  10.887  0.00  0.00    +0.109 C 
ATOM      2  C2  CHE B   00     17.432  66.916  12.630  0.00  0.00    +0.216 C 
ATOM      3  O1  CHE B   00     19.034  68.085  12.187  0.00  0.00    -0.276 OA
ATOM      4  N1  CHE B   00     22.096  70.567   8.653  0.00  0.00    -0.256 N 
ATOM      5  C3  CHE B   00     18.056  67.627   9.669  0.00  0.00    +0.200 A 
ATOM      6  N2  CHE B   00     16.111  66.298   9.230  0.00  0.00    -0.212 NA
ATOM      7  C4  CHE B   00     16.616  66.743   8.246  0.00  0.00    +0.117 A 
ATOM      8  C11 CHE B   00     22.115  70.786   6.419  0.00  0.00    +0.078 A 
ATOM      9  N7  CHE B   00     21.803  70.430   7.900  0.00  0.00    -0.325 N 
ATOM     10  H4  CHE B   00     21.263  69.967   8.792  0.00  0.00    +0.158 HD
ATOM     11  H14 CHE B   00     20.655  69.473   9.510  0.00  0.00    +0.169 HD
ENDROOT
BRANCH   8  12
ATOM     12  C12 CHE B   00     16.887  66.870   8.944  0.00  0.00    +0.019 A 
ATOM     13  C13 CHE B   00     19.657  67.938   8.077  0.00  0.00    +0.015 A 
ATOM     14  C14 CHE B   00     22.792  70.004   6.694  0.00  0.00    +0.049 A 
ATOM     15  C15 CHE B   00     20.118  68.827   7.600  0.00  0.00    +0.156 A 
ATOM     16  N4  CHE B   00     20.086  68.864   7.587  0.00  0.00    -0.215 NA
ATOM     17  C16 CHE B   00     20.370  69.957   7.038  0.00  0.00    +0.246 A 
ATOM     18  N5  CHE B   00     14.756  66.487   9.406  0.00  0.00    -0.154 NA
ATOM     19  N6  CHE B   00     15.825  66.675   9.177  0.00  0.00    -0.220 N 
ATOM     20  C17 CHE B   00     18.802  68.924   7.730  0.00  0.00    +0.124 A 
ENDBRANCH   8  12
BRANCH   7  21
ATOM     21  C5  CHE B   00     18.315  68.168   5.770  0.00  0.00    +0.092 A 
ATOM     22  C6  CHE B   00     18.103  68.115   5.288  0.00  0.00    +0.033 A 
ATOM     23  C7  CHE B   00     18.320  68.501   3.667  0.00  0.00    +0.042 A 
ATOM     24  C8  CHE B   00     15.716  66.847   4.084  0.00  0.00    +0.144 A 
ATOM     25  F1  CHE B   00     15.192  66.715   2.891  0.00  0.00    -0.204 F 
ATOM     26  C9  CHE B   00     13.660  65.333   5.748  0.00  0.00    +0.074 A 
ATOM     27  C10 CHE B   00     17.840  68.380   2.574  0.00  0.00    +0.068 C 
ATOM     28  N3  CHE B   00     17.226  67.561   5.405  0.00  0.00    -0.247 NA
ENDBRANCH   7  21
TORSDOF 2
ENDMDL
MODEL 3
REMARK VINA RESULT:      -9.9      2.386      5.131
REMARK  Name = dock_mp/CHEMBL5/CHEMBL517068.pdb
REMARK  4 active torsions:
REMARK  status: ('A' for Active; 'I' for Inactive)
REMARK    1  A    between atoms: C1_1  and  C2_2
REMARK    2  A    between atoms: C4_7  and  C5_8
REMARK    3  A    between atoms: C9_13  and  C10_14
REMARK    4  A    between atoms: C11_16  and  C12_17
REMARK                            x       y       z     vdW  Elec       q    Type
REMARK                         _______ _______ _______ _____ _____    ______ ____
ROOT
ATOM      1  C1  CHE B   00     20.009  68.652  13.207  0.00  0.00    +0.109 C 
ATOM      2  C2  CHE B   00     14.796  67.181   8.651  0.00  0.00    +0.216 C 
ATOM      3  O1  CHE B   00     16.257  67.587  10.003  0.00  0.00    -0.276 OA
ATOM      4  N1  CHE B   00     21.159  69.227  11.145  0.00  0.00    -0.256 N 
ATOM      5  C3  CHE B   00     17.553  68.236   7.678  0.00  0.00    +0.200 A 
ATOM      6  N2  CHE B   00     16.547  68.057   5.511  0.00  0.00    -0.212 NA
ATOM      7  C4  CHE B   00     17.670  68.457   5.483  0.00  0.00    +0.117 A 
ATOM      8  C11 CHE B   00     22.926  69.949   9.963  0.00  0.00    +0.078 A 
ATOM      9  N7  CHE B   00     21.547  69.421  10.449  0.00  0.00    -0.325 N 
ATOM     10  H4  CHE B   00     20.471  69.045  10.392  0.00  0.00    +0.158 HD
ATOM     11  H14 CHE B   00     19.485  68.715  10.174  0.00  0.00    +0.169 HD
ENDROOT
BRANCH   8  12
ATOM     12  C12 CHE B   00     17.310  68.277   6.128  0.00  0.00    +0.019 A 
ATOM     13  C13 CHE B   00     19.312  69.680   8.022  0.00  0.00    +0.015 A 
ATOM     14  C14 CHE B   00     22.407  70.828  10.284  0.00  0.00    +0.049 A 
ATOM     15  C15 CHE B   00     20.333  69.548   8.435  0.00  0.00    +0.156 A 
ATOM     16  N4  CHE B   00     20.357  69.507   8.420  0.00  0.00    -0.215 NA
ATOM     17  C16 CHE B   00     21.514  69.145   8.748  0.00  0.00    +0.246 A 
ATOM     18  N5  CHE B   00     16.194  66.972   4.730  0.00  0.00    -0.154 NA
ATOM     19  N6  CHE B   00     16.750  67.628   5.431  0.00  0.00    -0.220 N 
ATOM     20  C17 CHE B   00     19.967  68.571   7.617  0.00  0.00    +0.124 A 
ENDBRANCH   8  12
BRANCH   7  21
ATOM     21  C5  CHE B   00     20.794  69.532   5.841  0.00  0.00    +0.092 A 
ATOM     22  C6  CHE B   00     21.053  69.635   5.390  0.00  0.00    +0.033 A 
ATOM     23  C7  CHE B   00     22.521  70.162   4.766  0.00  0.00    +0.042 A 
ATOM     24  C8  CHE B   00     20.502  69.522   2.485  0.00  0.00    +0.144 A 
ATOM     25  F1  CHE B   00     21.142  69.774   1.371  0.00  0.00    -0.204 F 
ATOM     26  C9  CHE B   00     17.812  68.618   1.371  0.00  0.00    +0.074 A 
ATOM     27  C10 CHE B   00     23.108  70.393   3.745  0.00  0.00    +0.068 C 
ATOM     28  N3  CHE B   00     20.391  69.426   4.610  0.00  0.00    -0.247 NA
ENDBRANCH   7  21
TORSDOF 2
ENDMDL
MODEL 4
REMARK VINA RESULT:      -9.9      2.151      5.294
REMARK  Name = dock_mp/CHEMBL5/CHEMBL517068.pdb
REMARK  4 active torsions:
REMARK  status: ('A' for Active; 'I' for Inactive)
REMARK    1  A    between atoms: C1_1  and  C2_2
REMARK    2  A    between atoms: C4_7  and  C5_8
REMARK    3  A    between atoms: C9_13  and  C10_14
REMARK    4  A    between atoms: C11_16  and  C12_17
REMARK                            x       y       z     vdW  Elec       q    Type
REMARK                         _______ _______ _______ _____ _____    ______ ____
ROOT
ATOM      1  C1  CHE B   00     22.594  68.761  12.305  0.00  0.00    +0.109 C 
ATOM      2  C2  CHE B   00     16.069  66.665  10.536  0.00  0.00    +0.216 C 
ATOM      3  O1  CHE B   00     17.929  67.257  11.101  0.00  0.00    -0.276 OA
ATOM      4  N1  CHE B   00     22.776  69.013   9.895  0.00  0.00    -0.256 N 
ATOM      5  C3  CHE B   00     18.133  67.542   8.383  0.00  0.00    +0.200 A 
ATOM      6  N2  CHE B   00     16.345  67.049   6.866  0.00  0.00    -0.212 NA
ATOM      7  C4  CHE B   00     17.337  67.432   6.326  0.00  0.00    +0.117 A 
ATOM      8  C11 CHE B   00     23.869  69.537   8.005  0.00  0.00    +0.078 A 
ATOM      9  N7  CHE B   00     22.837  69.099   9.082  0.00  0.00    -0.325 N 
ATOM     10  H4  CHE B   00     21.852  68.726   9.523  0.00  0.00    +0.158 HD
ATOM     11  H14 CHE B   00     20.882  68.374   9.776  0.00  0.00    +0.169 HD
ENDROOT
BRANCH   8  12
ATOM     12  C12 CHE B   00     17.280  67.353   7.079  0.00  0.00    +0.019 A 
ATOM     13  C13 CHE B   00     20.312  67.503   7.667  0.00  0.00    +0.015 A 
ATOM     14  C14 CHE B   00     24.136  68.531   8.250  0.00  0.00    +0.049 A 
ATOM     15  C15 CHE B   00     21.141  68.240   7.696  0.00  0.00    +0.156 A 
ATOM     16  N4  CHE B   00     21.128  68.287   7.685  0.00  0.00    -0.215 NA
ATOM     17  C16 CHE B   00     21.887  69.287   7.650  0.00  0.00    +0.246 A 
ATOM     18  N5  CHE B   00     15.146  67.677   6.585  0.00  0.00    -0.154 NA
ATOM     19  N6  CHE B   00     16.214  67.510   6.833  0.00  0.00    -0.220 N 
ATOM     20  C17 CHE B   00     19.975  68.773   7.359  0.00  0.00    +0.124 A 
ENDBRANCH   8  12
BRANCH   7  21
ATOM     21  C5  CHE B   00     20.273  68.526   5.219  0.00  0.00    +0.092 A 
ATOM     22  C6  CHE B   00     20.281  68.689   4.715  0.00  0.00    +0.033 A 
ATOM     23  C7  CHE B   00     21.272  69.323   3.515  0.00  0.00    +0.042 A 
ATOM     24  C8  CHE B   00     18.366  68.925   2.472  0.00  0.00    +0.144 A 
ATOM     25  F1  CHE B   00     18.384  69.328   1.226  0.00  0.00    -0.204 F 
ATOM     26  C9  CHE B   00     15.442  68.105   2.732  0.00  0.00    +0.074 A 
ATOM     27  C10 CHE B   00     21.288  69.692   2.374  0.00  0.00    +0.068 C 
ATOM     28  N3  CHE B   00     19.313  68.564   4.345  0.00  0.00    -0.247 NA
ENDBRANCH   7  21
TORSDOF 2
ENDMDL
MODEL 5
REMARK VINA RESULT:      -9.7      2.159      6.180
REMARK  Name = dock_mp/CHEMBL5/CHEMBL517068.pdb
REMARK  4 active torsions:
REMARK  status: ('A' for Active; 'I' for Inactive)
REMARK    1  A    between atoms: C1_1  and  C2_2
REMARK    2  A    between atoms: C4_7  and  C5_8
REMARK    3  A    between atoms: C9_13  and  C10_14
REMARK    4  A    between atoms: C11_16  and  C12_17
REMARK                            x       y       z     vdW  Elec       q    Type
REMARK                         _______ _______ _______ _____ _____    ______ ____
ROOT
ATOM      1  C1  CHE B   00     26.181  69.561   4.820  0.00  0.00    +0.109 C 
ATOM      2  C2  CHE B   00     21.748  67.917  10.088  0.00  0.00    +0.216 C 
ATOM      3  O1  CHE B   00     23.066  68.384   8.613  0.00  0.00    -0.276 OA
ATOM      4  N1  CHE B   00     24.091  69.690   3.586  0.00  0.00    -0.256 N 
ATOM      5  C3  CHE B   00     20.710  68.529   7.222  0.00  0.00    +0.200 A 
ATOM      6  N2  CHE B   00     18.566  68.114   8.209  0.00  0.00    -0.212 NA
ATOM      7  C4  CHE B   00     18.512  68.391   7.050  0.00  0.00    +0.117 A 
ATOM      8  C11 CHE B   00     22.867  70.039   1.737  0.00  0.00    +0.078 A 
ATOM      9  N7  CHE B   00     23.386  69.733   3.170  0.00  0.00    -0.325 N 
ATOM     10  H4  CHE B   00     23.355  69.461   4.278  0.00  0.00    +0.158 HD
ATOM     11  H14 CHE B   00     23.160  69.199   5.289  0.00  0.00    +0.169 HD
ENDROOT
BRANCH   8  12
ATOM     12  C12 CHE B   00     19.165  68.350   7.436  0.00  0.00    +0.019 A 
ATOM     13  C13 CHE B   00     20.999  69.768   5.389  0.00  0.00    +0.015 A 
ATOM     14  C14 CHE B   00     23.184  70.927   2.243  0.00  0.00    +0.049 A 
ATOM     15  C15 CHE B   00     21.394  69.634   4.361  0.00  0.00    +0.156 A 
ATOM     16  N4  CHE B   00     21.380  69.593   4.337  0.00  0.00    -0.215 NA
ATOM     17  C16 CHE B   00     21.692  69.227   3.177  0.00  0.00    +0.246 A 
ATOM     18  N5  CHE B   00     17.809  67.032   8.588  0.00  0.00    -0.154 NA
ATOM     19  N6  CHE B   00     18.489  67.696   8.014  0.00  0.00    -0.220 N 
ATOM     20  C17 CHE B   00     20.600  68.647   4.750  0.00  0.00    +0.124 A 
ENDBRANCH   8  12
BRANCH   7  21
ATOM     21  C5  CHE B   00     18.795  69.195   3.838  0.00  0.00    +0.092 A 
ATOM     22  C6  CHE B   00     18.379  69.071   3.534  0.00  0.00    +0.033 A 
ATOM     23  C7  CHE B   00     17.787  69.136   1.963  0.00  0.00    +0.042 A 
ATOM     24  C8  CHE B   00     15.728  67.804   3.881  0.00  0.00    +0.144 A 
ATOM     25  F1  CHE B   00     14.699  67.498   3.130  0.00  0.00    -0.204 F 
ATOM     26  C9  CHE B   00     14.745  66.792   6.583  0.00  0.00    +0.074 A 
ATOM     27  C10 CHE B   00     16.844  68.856   1.276  0.00  0.00    +0.068 C 
ATOM     28  N3  CHE B   00     17.674  68.622   4.160  0.00  0.00    -0.247 NA
ENDBRANCH   7  21
TORSDOF 2
ENDMDL
MODEL 6
REMARK VINA RESULT:      -9.6      2.732      5.290
REMARK  Name = dock_mp/CHEMBL5/CHEMBL517068.pdb
REMARK  4 active torsions:
REMARK  status: ('A' for Active; 'I' for Inactive)
REMARK    1  A    between atoms: C1_1  and  C2_2
REMARK    2  A    between atoms: C4_7  and  C5_8
REMARK    3  A    between atoms: C9_13  and  C10_14
REMARK    4  A    between atoms: C11_16  and  C12_17
REMARK                            x       y       z     vdW  Elec       q    Type
REMARK                         _______ _______ _______ _____ _____    ______ ____
ROOT
ATOM      1  C1  CHE B   00     25.601  70.060   8.501  0.00  0.00    +0.109 C 
ATOM      2  C2  CHE B   00     22.584  69.603   2.115  0.00  0.00    +0.216 C 
ATOM      3  O1  CHE B   00     23.503  69.741   3.922  0.00  0.00    -0.276 OA
ATOM      4  N1  CHE B   00     23.296  69.767   9.212  0.00  0.00    -0.256 N 
ATOM      5  C3  CHE B   00     20.903  69.410   4.723  0.00  0.00    +0.200 A 
ATOM      6  N2  CHE B   00     19.074  69.157   3.197  0.00  0.00    -0.212 NA
ATOM      7  C4  CHE B   00     18.746  69.125   4.343  0.00  0.00    +0.117 A 
ATOM      8  C11 CHE B   00     21.678  69.571  10.756  0.00  0.00    +0.078 A 
ATOM      9  N7  CHE B   00     22.518  69.668   9.452  0.00  0.00    -0.325 N 
ATOM     10  H4  CHE B   00     22.751  69.687   8.335  0.00  0.00    +0.158 HD
ATOM     11  H14 CHE B   00     22.804  69.683   7.273  0.00  0.00    +0.169 HD
ENDROOT
BRANCH   8  12
ATOM     12  C12 CHE B   00     19.467  69.217   4.121  0.00  0.00    +0.019 A 
ATOM     13  C13 CHE B   00     20.805  68.639   6.848  0.00  0.00    +0.015 A 
ATOM     14  C14 CHE B   00     22.178  68.637  10.607  0.00  0.00    +0.049 A 
ATOM     15  C15 CHE B   00     20.910  69.084   7.859  0.00  0.00    +0.156 A 
ATOM     16  N4  CHE B   00     20.886  69.128   7.866  0.00  0.00    -0.215 NA
ATOM     17  C16 CHE B   00     20.861  69.817   8.916  0.00  0.00    +0.246 A 
ATOM     18  N5  CHE B   00     18.365  69.995   2.365  0.00  0.00    -0.154 NA
ATOM     19  N6  CHE B   00     18.918  69.602   3.243  0.00  0.00    -0.220 N 
ATOM     20  C17 CHE B   00     20.174  69.818   7.036  0.00  0.00    +0.124 A 
ENDBRANCH   8  12
BRANCH   7  21
ATOM     21  C5  CHE B   00     18.256  69.095   7.630  0.00  0.00    +0.092 A 
ATOM     22  C6  CHE B   00     17.791  68.894   7.790  0.00  0.00    +0.033 A 
ATOM     23  C7  CHE B   00     16.863  68.554   9.148  0.00  0.00    +0.042 A 
ATOM     24  C8  CHE B   00     15.374  67.732   6.541  0.00  0.00    +0.144 A 
ATOM     25  F1  CHE B   00     14.227  67.237   6.935  0.00  0.00    -0.204 F 
ATOM     26  C9  CHE B   00     15.085  67.426   3.522  0.00  0.00    +0.074 A 
ATOM     27  C10 CHE B   00     15.812  68.101   9.509  0.00  0.00    +0.068 C 
ATOM     28  N3  CHE B   00     17.275  68.611   6.928  0.00  0.00    -0.247 NA
ENDBRANCH   7  21
TORSDOF 2
ENDMDL
MODEL 7
REMARK VINA RESULT:      -9.6      3.463      5.932
REMARK  Name = dock_mp/CHEMBL5/CHEMBL517068.pdb
REMARK  4 active torsions:
REMARK  status: ('A' for Active; 'I' for Inactive)
REMARK    1  A    between atoms: C1_1  and  C2_2
REMARK    2  A    between atoms: C4_7  and  C5_8
REMARK    3  A    between atoms: C9_13  and  C10_14
REMARK    4  A    between atoms: C11_16  and  C12_17
REMARK                            x       y       z     vdW  Elec       q    Type
REMARK                         _______ _______ _______ _____ _____    ______ ____
ROOT
ATOM      1  C1  CHE B   00     15.662  68.030   2.828  0.00  0.00    +0.109 C 
ATOM      2  C2  CHE B   00     22.285  70.053   4.289  0.00  0.00    +0.216 C 
ATOM      3  O1  CHE B   00     20.394  69.484   3.812  0.00  0.00    -0.276 OA
ATOM      4  N1  CHE B   00     15.626  67.672   5.231  0.00  0.00    -0.256 N 
ATOM      5  C3  CHE B   00     20.354  69.080   6.522  0.00  0.00    +0.200 A 
ATOM      6  N2  CHE B   00     22.231  69.507   7.948  0.00  0.00    -0.212 NA
ATOM      7  C4  CHE B   00     21.273  69.100   8.531  0.00  0.00    +0.117 A 
ATOM      8  C11 CHE B   00     14.648  67.064   7.158  0.00  0.00    +0.078 A 
ATOM      9  N7  CHE B   00     15.614  67.551   6.042  0.00  0.00    -0.325 N 
ATOM     10  H4  CHE B   00     16.571  67.943   5.558  0.00  0.00    +0.158 HD
ATOM     11  H14 CHE B   00     17.524  68.307   5.263  0.00  0.00    +0.169 HD
ENDROOT
BRANCH   8  12
ATOM     12  C12 CHE B   00     21.284  69.212   7.779  0.00  0.00    +0.019 A 
ATOM     13  C13 CHE B   00     18.726  67.584   7.172  0.00  0.00    +0.015 A 
ATOM     14  C14 CHE B   00     15.015  66.158   6.722  0.00  0.00    +0.049 A 
ATOM     15  C15 CHE B   00     17.624  67.659   7.268  0.00  0.00    +0.156 A 
ATOM     16  N4  CHE B   00     17.607  67.702   7.288  0.00  0.00    -0.215 NA
ATOM     17  C16 CHE B   00     16.408  68.014   7.498  0.00  0.00    +0.246 A 
ATOM     18  N5  CHE B   00     22.836  70.679   8.367  0.00  0.00    -0.154 NA
ATOM     19  N6  CHE B   00     22.062  69.941   8.071  0.00  0.00    -0.220 N 
ATOM     20  C17 CHE B   00     18.264  68.727   7.723  0.00  0.00    +0.124 A 
ENDBRANCH   8  12
BRANCH   7  21
ATOM     21  C5  CHE B   00     18.407  67.956   9.764  0.00  0.00    +0.092 A 
ATOM     22  C6  CHE B   00     18.388  67.911  10.291  0.00  0.00    +0.033 A 
ATOM     23  C7  CHE B   00     17.400  67.456  11.572  0.00  0.00    +0.042 A 
ATOM     24  C8  CHE B   00     20.183  68.409  12.589  0.00  0.00    +0.144 A 
ATOM     25  F1  CHE B   00     20.135  68.298  13.894  0.00  0.00    -0.204 F 
ATOM     26  C9  CHE B   00     23.016  69.478  12.243  0.00  0.00    +0.074 A 
ATOM     27  C10 CHE B   00     17.356  67.354  12.767  0.00  0.00    +0.068 C 
ATOM     28  N3  CHE B   00     19.314  68.227  10.654  0.00  0.00    -0.247 NA
ENDBRANCH   7  21
TORSDOF 2
ENDMDL
MODEL 8
REMARK VINA RESULT:      -9.5      3.608      7.778
REMARK  Name = dock_mp/CHEMBL5/CHEMBL517068.pdb
REMARK  4 active torsions:
REMARK  status: ('A' for Active; 'I' for Inactive)
REMARK    1  A    between atoms: C1_1  and  C2_2
REMARK    2  A    between atoms: C4_7  and  C5_8
REMARK    3  A    between atoms: C9_13  and  C10_14
REMARK    4  A    between atoms: C11_16  and  C12_17
REMARK                            x       y       z     vdW  Elec       q    Type
REMARK                         _______ _______ _______ _____ _____    ______ ____
ROOT
ATOM      1  C1  CHE B   00     18.392  69.189   1.634  0.00  0.00    +0.109 C 
ATOM      2  C2  CHE B   00     14.407  65.457   6.138  0.00  0.00    +0.216 C 
ATOM      3  O1  CHE B   00     15.512  66.516   4.802  0.00  0.00    -0.276 OA
ATOM      4  N1  CHE B   00     19.730  69.496   3.639  0.00  0.00    -0.256 N 
ATOM      5  C3  CHE B   00     17.021  66.862   7.063  0.00  0.00    +0.200 A 
ATOM      6  N2  CHE B   00     16.444  65.925   9.191  0.00  0.00    -0.212 NA
ATOM      7  C4  CHE B   00     17.454  66.559   9.208  0.00  0.00    +0.117 A 
ATOM      8  C11 CHE B   00     21.489  70.303   4.778  0.00  0.00    +0.078 A 
ATOM      9  N7  CHE B   00     20.182  69.600   4.316  0.00  0.00    -0.325 N 
ATOM     10  H4  CHE B   00     19.227  68.978   4.382  0.00  0.00    +0.158 HD
ATOM     11  H14 CHE B   00     18.377  68.381   4.605  0.00  0.00    +0.169 HD
ENDROOT
BRANCH   8  12
ATOM     12  C12 CHE B   00     17.035  66.463   8.581  0.00  0.00    +0.019 A 
ATOM     13  C13 CHE B   00     19.165  67.410   6.549  0.00  0.00    +0.015 A 
ATOM     14  C14 CHE B   00     21.772  69.409   4.263  0.00  0.00    +0.049 A 
ATOM     15  C15 CHE B   00     19.682  68.336   6.223  0.00  0.00    +0.156 A 
ATOM     16  N4  CHE B   00     19.669  68.378   6.247  0.00  0.00    -0.215 NA
ATOM     17  C16 CHE B   00     20.111  69.538   6.056  0.00  0.00    +0.246 A 
ATOM     18  N5  CHE B   00     15.496  66.208  10.152  0.00  0.00    -0.154 NA
ATOM     19  N6  CHE B   00     16.267  66.331   9.364  0.00  0.00    -0.220 N 
ATOM     20  C17 CHE B   00     18.808  68.538   7.199  0.00  0.00    +0.124 A 
ENDBRANCH   8  12
BRANCH   7  21
ATOM     21  C5  CHE B   00     20.197  68.396   8.829  0.00  0.00    +0.092 A 
ATOM     22  C6  CHE B   00     20.400  68.598   9.275  0.00  0.00    +0.033 A 
ATOM     23  C7  CHE B   00     21.649  69.543   9.884  0.00  0.00    +0.042 A 
ATOM     24  C8  CHE B   00     19.771  68.565  12.166  0.00  0.00    +0.144 A 
ATOM     25  F1  CHE B   00     20.272  69.064  13.269  0.00  0.00    -0.204 F 
ATOM     26  C9  CHE B   00     17.368  67.067  13.294  0.00  0.00    +0.074 A 
ATOM     27  C10 CHE B   00     22.108  69.999  10.894  0.00  0.00    +0.068 C 
ATOM     28  N3  CHE B   00     19.783  68.281  10.055  0.00  0.00    -0.247 NA
ENDBRANCH   7  21
TORSDOF 2
ENDMDL
MODEL 9
REMARK VINA RESULT:      -9.5      2.872      6.059
REMARK  Name = dock_mp/CHEMBL5/CHEMBL517068.pdb
REMARK  4 active torsions:
REMARK  status: ('A' for Active; 'I' for Inactive)
REMARK    1  A    between atoms: C1_1  and  C2_2
REMARK    2  A    between atoms: C4_7  and  C5_8
REMARK    3  A    between atoms: C9_13  and  C10_14
REMARK    4  A    between atoms: C11_16  and  C12_17
REMARK                            x       y       z     vdW  Elec       q    Type
REMARK                         _______ _______ _______ _____ _____    ______ ____
ROOT
ATOM      1  C1  CHE B   00     22.288  70.377   1.193  0.00  0.00    +0.109 C 
ATOM      2  C2  CHE B   00     24.212  69.584   7.959  0.00  0.00    +0.216 C 
ATOM      3  O1  CHE B   00     23.715  69.830   6.004  0.00  0.00    -0.276 OA
ATOM      4  N1  CHE B   00     20.169  69.586   2.080  0.00  0.00    -0.256 N 
ATOM      5  C3  CHE B   00     21.325  68.938   7.004  0.00  0.00    +0.200 A 
ATOM      6  N2  CHE B   00     20.985  68.379   9.309  0.00  0.00    -0.212 NA
ATOM      7  C4  CHE B   00     20.012  68.232   8.635  0.00  0.00    +0.117 A 
ATOM      8  C11 CHE B   00     18.010  68.996   1.902  0.00  0.00    +0.078 A 
ATOM      9  N7  CHE B   00     19.454  69.319   2.379  0.00  0.00    -0.325 N 
ATOM     10  H4  CHE B   00     20.339  69.434   3.090  0.00  0.00    +0.158 HD
ATOM     11  H14 CHE B   00     21.059  69.486   3.871  0.00  0.00    +0.169 HD
ENDROOT
BRANCH   8  12
ATOM     12  C12 CHE B   00     20.675  68.480   8.357  0.00  0.00    +0.019 A 
ATOM     13  C13 CHE B   00     19.465  69.525   5.711  0.00  0.00    +0.015 A 
ATOM     14  C14 CHE B   00     17.923  70.052   2.056  0.00  0.00    +0.049 A 
ATOM     15  C15 CHE B   00     19.121  69.154   4.724  0.00  0.00    +0.156 A 
ATOM     16  N4  CHE B   00     19.125  69.105   4.717  0.00  0.00    -0.215 NA
ATOM     17  C16 CHE B   00     18.804  68.457   3.689  0.00  0.00    +0.246 A 
ATOM     18  N5  CHE B   00     21.519  67.339  10.057  0.00  0.00    -0.154 NA
ATOM     19  N6  CHE B   00     21.097  67.914   9.208  0.00  0.00    -0.220 N 
ATOM     20  C17 CHE B   00     19.575  68.194   5.517  0.00  0.00    +0.124 A 
ENDBRANCH   8  12
BRANCH   7  21
ATOM     21  C5  CHE B   00     17.548  67.960   6.422  0.00  0.00    +0.092 A 
ATOM     22  C6  CHE B   00     17.081  67.804   6.618  0.00  0.00    +0.033 A 
ATOM     23  C7  CHE B   00     15.491  67.456   6.204  0.00  0.00    +0.042 A 
ATOM     24  C8  CHE B   00     15.964  67.062   9.255  0.00  0.00    +0.144 A 
ATOM     25  F1  CHE B   00     14.811  66.676   9.741  0.00  0.00    -0.204 F 
ATOM     26  C9  CHE B   00     17.645  67.071  11.798  0.00  0.00    +0.074 A 
ATOM     27  C10 CHE B   00     14.434  67.102   6.649  0.00  0.00    +0.068 C 
ATOM     28  N3  CHE B   00     17.219  67.666   7.644  0.00  0.00    -0.247 NA
ENDBRANCH   7  21
TORSDOF 2
ENDMDL
MODEL 10
REMARK VINA RESULT:      -9.3      3.049      5.037
REMARK  Name = dock_mp/CHEMBL5/CHEMBL517068.pdb
REMARK  4 active torsions:
REMARK  status: ('A' for Active; 'I' for Inactive)
REMARK    1  A    between atoms: C1_1  and  C2_2
REMARK    2  A    between atoms: C4_7  and  C5_8
REMARK    3  A    between atoms: C9_13  and  C10_14
REMARK    4  A    between atoms: C11_16  and  C12_17
REMARK                            x       y       z     vdW  Elec       q    Type
REMARK                         _______ _______ _______ _____ _____    ______ ____
ROOT
ATOM      1  C1  CHE B   00     14.751  67.415   6.448  0.00  0.00    +0.109 C 
ATOM      2  C2  CHE B   00     20.152  68.645  10.854  0.00  0.00    +0.216 C 
ATOM      3  O1  CHE B   00     18.568  68.278   9.636  0.00  0.00    -0.276 OA
ATOM      4  N1  CHE B   00     16.424  68.041   4.801  0.00  0.00    -0.256 N 
ATOM      5  C3  CHE B   00     20.454  68.985   7.778  0.00  0.00    +0.200 A 
ATOM      6  N2  CHE B   00     22.700  69.599   8.346  0.00  0.00    -0.212 NA
ATOM      7  C4  CHE B   00     22.479  69.630   7.174  0.00  0.00    +0.117 A 
ATOM      8  C11 CHE B   00     17.139  68.423   2.707  0.00  0.00    +0.078 A 
ATOM      9  N7  CHE B   00     16.988  68.253   4.245  0.00  0.00    -0.325 N 
ATOM     10  H4  CHE B   00     17.278  68.248   5.349  0.00  0.00    +0.158 HD
ATOM     11  H14 CHE B   00     17.698  68.292   6.324  0.00  0.00    +0.169 HD
ENDROOT
BRANCH   8  12
ATOM     12  C12 CHE B   00     21.956  69.434   7.689  0.00  0.00    +0.019 A 
ATOM     13  C13 CHE B   00     19.938  68.180   5.709  0.00  0.00    +0.015 A 
ATOM     14  C14 CHE B   00     17.199  67.373   2.905  0.00  0.00    +0.049 A 
ATOM     15  C15 CHE B   00     19.225  68.479   4.914  0.00  0.00    +0.156 A 
ATOM     16  N4  CHE B   00     19.222  68.528   4.904  0.00  0.00    -0.215 NA
ATOM     17  C16 CHE B   00     18.493  69.101   4.057  0.00  0.00    +0.246 A 
ATOM     18  N5  CHE B   00     23.275  70.711   8.926  0.00  0.00    -0.154 NA
ATOM     19  N6  CHE B   00     22.616  70.067   8.309  0.00  0.00    -0.220 N 
ATOM     20  C17 CHE B   00     19.863  69.505   5.459  0.00  0.00    +0.124 A 
ENDBRANCH   8  12
BRANCH   7  21
ATOM     21  C5  CHE B   00     21.458  69.587   4.012  0.00  0.00    +0.092 A 
ATOM     22  C6  CHE B   00     21.844  69.588   3.648  0.00  0.00    +0.033 A 
ATOM     23  C7  CHE B   00     22.138  69.575   1.994  0.00  0.00    +0.042 A 
ATOM     24  C8  CHE B   00     24.801  69.620   3.604  0.00  0.00    +0.144 A 
ATOM     25  F1  CHE B   00     25.754  69.622   2.704  0.00  0.00    -0.204 F 
ATOM     26  C9  CHE B   00     26.469  69.664   6.155  0.00  0.00    +0.074 A 
ATOM     27  C10 CHE B   00     23.010  69.576   1.169  0.00  0.00    +0.068 C 
ATOM     28  N3  CHE B   00     22.748  69.603   4.168  0.00  0.00    -0.247 NA
ENDBRANCH   7  21
TORSDOF 2
ENDMDL
