MODEL 1
REMARK VINA RESULT:      -7.5      0.000      0.000
REMARK  Name = dock_mp/CHEMBL5/CHEMBL576062.pdb
REMARK  3 active torsions:
REMARK  status: ('A' for Active; 'I' for Inactive)
REMARK    1  A    between atoms: C1_1  and  C2_2
REMARK    2  A    between atoms: C6_7  and  C7_8
REMARK    3  A    between atoms: C9_13  and  C10_14
REMARK                            x       y       z     vdW  Elec       q    Type
REMARK                         _______ _______ _______ _____ _____    ______ ____
ROOT
ATOM      1  C7  CHE B   00     21.188  69.678   9.682  0.00  0.00    +0.108 A 
ATOM      2  N2  CHE B   00     17.224  69.028   9.215  0.00  0.00    -0.223 NA
ATOM      3  C8  CHE B   00     23.954  70.708  10.248  0.00  0.00    +0.157 A 
ATOM      4  N3  CHE B   00     24.774  71.317  10.542  0.00  0.00    -0.337 N 
ATOM      5  S1  CHE B   00     17.996  67.015   8.415  0.00  0.00    -0.050 S 
ATOM      6  C9  CHE B   00     20.694  68.220   9.050  0.00  0.00    +0.068 A 
ATOM      7  H7  CHE B   00     22.015  70.269   9.969  0.00  0.00    +0.144 HD
ATOM      8  H8  CHE B   00     22.754  71.088  10.347  0.00  0.00    +0.144 HD
ENDROOT
BRANCH   6   9
ATOM      9  C10 CHE B   00     22.935  67.871   9.015  0.00  0.00    +0.081 A 
ATOM     10  C11 CHE B   00     21.339  68.370   7.885  0.00  0.00    +0.031 A 
ATOM     11  C12 CHE B   00     26.169  67.318   9.194  0.00  0.00    +0.032 A 
ATOM     12  C13 CHE B   00     18.773  69.512   4.494  0.00  0.00    +0.089 A 
ATOM     13  N4  CHE B   00     19.284  69.630   3.573  0.00  0.00    -0.253 NA
ATOM     14  C14 CHE B   00     21.380  69.248   3.799  0.00  0.00    +0.111 A 
ATOM     15  C15 CHE B   00     21.241  69.215   4.051  0.00  0.00    +0.022 A 
ATOM     16  C16 CHE B   00     25.913  67.693   7.651  0.00  0.00    +0.031 A 
ATOM     17  C17 CHE B   00     19.501  69.246   5.186  0.00  0.00    +0.090 A 
ATOM     18  N5  CHE B   00     20.731  68.663   6.977  0.00  0.00    -0.245 NA
ENDBRANCH   6   9
BRANCH   1  25
ATOM     19  C1  CHE B   00     18.797  68.109  11.599  0.00  0.00    +0.046 C 
ATOM     20  C2  CHE B   00     22.824  71.034  11.112  0.00  0.00    -0.023 A 
ATOM     21  C3  CHE B   00     19.613  68.769  12.156  0.00  0.00    +0.007 A 
ATOM     22  C4  CHE B   00     19.611  68.758  12.066  0.00  0.00    +0.020 A 
ATOM     23  C5  CHE B   00     20.404  69.250  11.152  0.00  0.00    +0.111 A 
ATOM     24  N1  CHE B   00     18.782  67.995  10.606  0.00  0.00    -0.253 NA
ATOM     25  C6  CHE B   00     22.812  70.939  10.288  0.00  0.00    +0.093 A 
ENDBRANCH   1  25
TORSDOF 2
ENDMDL
MODEL 2
REMARK VINA RESULT:      -7.3      1.896      5.187
REMARK  Name = dock_mp/CHEMBL5/CHEMBL576062.pdb
REMARK  3 active torsions:
REMARK  status: ('A' for Active; 'I' for Inactive)
REMARK    1  A    between atoms: C1_1  and  C2_2
REMARK    2  A    between atoms: C6_7  and  C7_8
REMARK    3  A    between atoms: C9_13  and  C10_14
REMARK                            x       y       z     vdW  Elec       q    Type
REMARK                         _______ _______ _______ _____ _____    ______ ____
ROOT
ATOM      1  C7  CHE B   00     21.745  69.710   9.664  0.00  0.00    +0.108 A 
ATOM      2  N2  CHE B   00     18.466  69.390   7.317  0.00  0.00    -0.223 NA
ATOM      3  C8  CHE B   00     23.999  70.533  11.473  0.00  0.00    +0.157 A 
ATOM      4  N3  CHE B   00     24.650  71.093  12.099  0.00  0.00    -0.337 N 
ATOM      5  S1  CHE B   00     19.226  67.226   7.138  0.00  0.00    -0.050 S 
ATOM      6  C9  CHE B   00     21.414  68.238   8.962  0.00  0.00    +0.068 A 
ATOM      7  H7  CHE B   00     22.402  70.251  10.289  0.00  0.00    +0.144 HD
ATOM      8  H8  CHE B   00     22.974  71.036  10.934  0.00  0.00    +0.144 HD
ENDROOT
BRANCH   6   9
ATOM      9  C10 CHE B   00     23.308  67.673  10.076  0.00  0.00    +0.081 A 
ATOM     10  C11 CHE B   00     21.331  68.021  10.282  0.00  0.00    +0.031 A 
ATOM     11  C12 CHE B   00     26.165  66.870  11.486  0.00  0.00    +0.032 A 
ATOM     12  C13 CHE B   00     17.295  68.505  11.974  0.00  0.00    +0.089 A 
ATOM     13  N4  CHE B   00     17.229  68.334  13.018  0.00  0.00    -0.253 NA
ATOM     14  C14 CHE B   00     19.141  67.818  13.837  0.00  0.00    +0.111 A 
ATOM     15  C15 CHE B   00     19.159  67.865  13.551  0.00  0.00    +0.022 A 
ATOM     16  C16 CHE B   00     25.106  66.862  12.697  0.00  0.00    +0.031 A 
ATOM     17  C17 CHE B   00     18.293  68.355  11.729  0.00  0.00    +0.090 A 
ATOM     18  N5  CHE B   00     20.317  68.131  10.774  0.00  0.00    -0.245 NA
ENDBRANCH   6   9
BRANCH   1  25
ATOM     19  C1  CHE B   00     21.266  69.879   6.259  0.00  0.00    +0.046 C 
ATOM     20  C2  CHE B   00     23.453  71.436  10.477  0.00  0.00    -0.023 A 
ATOM     21  C3  CHE B   00     22.038  70.634   6.751  0.00  0.00    +0.007 A 
ATOM     22  C4  CHE B   00     21.992  70.573   6.799  0.00  0.00    +0.020 A 
ATOM     23  C5  CHE B   00     22.011  70.330   8.082  0.00  0.00    +0.111 A 
ATOM     24  N1  CHE B   00     20.756  69.204   6.793  0.00  0.00    -0.253 NA
ATOM     25  C6  CHE B   00     23.030  70.876  10.921  0.00  0.00    +0.093 A 
ENDBRANCH   1  25
TORSDOF 2
ENDMDL
MODEL 3
REMARK VINA RESULT:      -6.9      2.861      5.443
REMARK  Name = dock_mp/CHEMBL5/CHEMBL576062.pdb
REMARK  3 active torsions:
REMARK  status: ('A' for Active; 'I' for Inactive)
REMARK    1  A    between atoms: C1_1  and  C2_2
REMARK    2  A    between atoms: C6_7  and  C7_8
REMARK    3  A    between atoms: C9_13  and  C10_14
REMARK                            x       y       z     vdW  Elec       q    Type
REMARK                         _______ _______ _______ _____ _____    ______ ____
ROOT
ATOM      1  C7  CHE B   00     21.904  67.771   9.661  0.00  0.00    +0.108 A 
ATOM      2  N2  CHE B   00     20.565  68.873   6.007  0.00  0.00    -0.223 NA
ATOM      3  C8  CHE B   00     23.336  66.657  12.057  0.00  0.00    +0.157 A 
ATOM      4  N3  CHE B   00     24.022  66.145  12.687  0.00  0.00    -0.337 N 
ATOM      5  S1  CHE B   00     18.980  69.939   7.287  0.00  0.00    -0.050 S 
ATOM      6  C9  CHE B   00     20.549  68.732   9.572  0.00  0.00    +0.068 A 
ATOM      7  H7  CHE B   00     22.577  67.268  10.302  0.00  0.00    +0.144 HD
ATOM      8  H8  CHE B   00     23.429  66.645  10.798  0.00  0.00    +0.144 HD
ENDROOT
BRANCH   6   9
ATOM      9  C10 CHE B   00     20.688  68.538  11.827  0.00  0.00    +0.081 A 
ATOM     10  C11 CHE B   00     19.549  68.116  10.216  0.00  0.00    +0.031 A 
ATOM     11  C12 CHE B   00     21.093  68.369  15.083  0.00  0.00    +0.032 A 
ATOM     12  C13 CHE B   00     16.301  66.672   7.617  0.00  0.00    +0.089 A 
ATOM     13  N4  CHE B   00     15.510  66.185   8.127  0.00  0.00    -0.253 NA
ATOM     14  C14 CHE B   00     15.872  66.129  10.238  0.00  0.00    +0.111 A 
ATOM     15  C15 CHE B   00     16.088  66.262  10.099  0.00  0.00    +0.022 A 
ATOM     16  C16 CHE B   00     19.684  67.640  14.818  0.00  0.00    +0.031 A 
ATOM     17  C17 CHE B   00     16.978  66.950   8.353  0.00  0.00    +0.090 A 
ATOM     18  N5  CHE B   00     18.685  67.723   9.600  0.00  0.00    -0.245 NA
ENDBRANCH   6   9
BRANCH   1  25
ATOM     19  C1  CHE B   00     22.376  70.523   7.646  0.00  0.00    +0.046 C 
ATOM     20  C2  CHE B   00     24.065  67.068  10.844  0.00  0.00    -0.023 A 
ATOM     21  C3  CHE B   00     23.311  70.105   8.247  0.00  0.00    +0.007 A 
ATOM     22  C4  CHE B   00     23.230  70.068   8.252  0.00  0.00    +0.020 A 
ATOM     23  C5  CHE B   00     22.821  69.035   8.940  0.00  0.00    +0.111 A 
ATOM     24  N1  CHE B   00     21.468  70.107   7.705  0.00  0.00    -0.253 NA
ATOM     25  C6  CHE B   00     23.311  66.724  10.893  0.00  0.00    +0.093 A 
ENDBRANCH   1  25
TORSDOF 2
ENDMDL
MODEL 4
REMARK VINA RESULT:      -6.8      3.302      7.335
REMARK  Name = dock_mp/CHEMBL5/CHEMBL576062.pdb
REMARK  3 active torsions:
REMARK  status: ('A' for Active; 'I' for Inactive)
REMARK    1  A    between atoms: C1_1  and  C2_2
REMARK    2  A    between atoms: C6_7  and  C7_8
REMARK    3  A    between atoms: C9_13  and  C10_14
REMARK                            x       y       z     vdW  Elec       q    Type
REMARK                         _______ _______ _______ _____ _____    ______ ____
ROOT
ATOM      1  C7  CHE B   00     20.990  67.892   8.842  0.00  0.00    +0.108 A 
ATOM      2  N2  CHE B   00     24.649  68.986   7.508  0.00  0.00    -0.223 NA
ATOM      3  C8  CHE B   00     18.250  66.753   9.312  0.00  0.00    +0.157 A 
ATOM      4  N3  CHE B   00     17.338  66.216   9.208  0.00  0.00    -0.337 N 
ATOM      5  S1  CHE B   00     24.636  70.171   9.479  0.00  0.00    -0.050 S 
ATOM      6  C9  CHE B   00     21.897  68.929   9.777  0.00  0.00    +0.068 A 
ATOM      7  H7  CHE B   00     20.078  67.366   8.756  0.00  0.00    +0.144 HD
ATOM      8  H8  CHE B   00     19.168  66.706   8.447  0.00  0.00    +0.144 HD
ENDROOT
BRANCH   6   9
ATOM      9  C10 CHE B   00     20.063  68.779  11.104  0.00  0.00    +0.081 A 
ATOM     10  C11 CHE B   00     21.954  68.122  10.845  0.00  0.00    +0.031 A 
ATOM     11  C12 CHE B   00     17.301  68.714  12.883  0.00  0.00    +0.032 A 
ATOM     12  C13 CHE B   00     25.791  66.026  11.366  0.00  0.00    +0.089 A 
ATOM     13  N4  CHE B   00     25.836  65.388  12.211  0.00  0.00    -0.253 NA
ATOM     14  C14 CHE B   00     23.990  65.419  13.299  0.00  0.00    +0.111 A 
ATOM     15  C15 CHE B   00     23.977  65.594  13.067  0.00  0.00    +0.022 A 
ATOM     16  C16 CHE B   00     18.295  67.708  13.651  0.00  0.00    +0.031 A 
ATOM     17  C17 CHE B   00     24.839  66.442  11.379  0.00  0.00    +0.090 A 
ATOM     18  N5  CHE B   00     22.916  67.556  11.031  0.00  0.00    -0.245 NA
ENDBRANCH   6   9
BRANCH   1  25
ATOM     19  C1  CHE B   00     22.184  70.592   7.069  0.00  0.00    +0.046 C 
ATOM     20  C2  CHE B   00     18.717  67.101   7.966  0.00  0.00    -0.023 A 
ATOM     21  C3  CHE B   00     21.134  70.137   6.752  0.00  0.00    +0.007 A 
ATOM     22  C4  CHE B   00     21.183  70.104   6.820  0.00  0.00    +0.020 A 
ATOM     23  C5  CHE B   00     20.935  69.102   7.620  0.00  0.00    +0.111 A 
ATOM     24  N1  CHE B   00     22.726  70.222   7.824  0.00  0.00    -0.253 NA
ATOM     25  C6  CHE B   00     19.167  66.794   8.592  0.00  0.00    +0.093 A 
ENDBRANCH   1  25
TORSDOF 2
ENDMDL
MODEL 5
REMARK VINA RESULT:      -6.0      6.187      9.057
REMARK  Name = dock_mp/CHEMBL5/CHEMBL576062.pdb
REMARK  3 active torsions:
REMARK  status: ('A' for Active; 'I' for Inactive)
REMARK    1  A    between atoms: C1_1  and  C2_2
REMARK    2  A    between atoms: C6_7  and  C7_8
REMARK    3  A    between atoms: C9_13  and  C10_14
REMARK                            x       y       z     vdW  Elec       q    Type
REMARK                         _______ _______ _______ _____ _____    ______ ____
ROOT
ATOM      1  C7  CHE B   00     26.064  72.169   3.114  0.00  0.00    +0.108 A 
ATOM      2  N2  CHE B   00     26.154  69.706   6.322  0.00  0.00    -0.223 NA
ATOM      3  C8  CHE B   00     25.667  74.365   1.102  0.00  0.00    +0.157 A 
ATOM      4  N3  CHE B   00     25.374  75.268   0.624  0.00  0.00    -0.337 N 
ATOM      5  S1  CHE B   00     27.374  68.412   4.863  0.00  0.00    -0.050 S 
ATOM      6  C9  CHE B   00     26.871  70.721   2.977  0.00  0.00    +0.068 A 
ATOM      7  H7  CHE B   00     25.781  73.061   2.623  0.00  0.00    +0.144 HD
ATOM      8  H8  CHE B   00     25.361  74.098   2.297  0.00  0.00    +0.144 HD
ENDROOT
BRANCH   6   9
ATOM      9  C10 CHE B   00     27.234  71.518   0.885  0.00  0.00    +0.081 A 
ATOM     10  C11 CHE B   00     25.835  70.764   2.129  0.00  0.00    +0.031 A 
ATOM     11  C12 CHE B   00     27.983  72.707  -2.085  0.00  0.00    +0.032 A 
ATOM     12  C13 CHE B   00     22.032  69.296   3.793  0.00  0.00    +0.089 A 
ATOM     13  N4  CHE B   00     21.212  69.330   3.121  0.00  0.00    -0.253 NA
ATOM     14  C14 CHE B   00     21.807  70.119   1.219  0.00  0.00    +0.111 A 
ATOM     15  C15 CHE B   00     22.031  70.109   1.403  0.00  0.00    +0.022 A 
ATOM     16  C16 CHE B   00     26.413  72.366  -2.175  0.00  0.00    +0.031 A 
ATOM     17  C17 CHE B   00     22.843  69.669   3.263  0.00  0.00    +0.090 A 
ATOM     18  N5  CHE B   00     24.830  70.399   2.500  0.00  0.00    -0.245 NA
ENDBRANCH   6   9
BRANCH   1  25
ATOM     19  C1  CHE B   00     28.292  71.649   5.687  0.00  0.00    +0.046 C 
ATOM     20  C2  CHE B   00     25.833  74.653   2.535  0.00  0.00    -0.023 A 
ATOM     21  C3  CHE B   00     28.103  72.766   5.331  0.00  0.00    +0.007 A 
ATOM     22  C4  CHE B   00     28.061  72.695   5.294  0.00  0.00    +0.020 A 
ATOM     23  C5  CHE B   00     27.191  72.652   4.321  0.00  0.00    +0.111 A 
ATOM     24  N1  CHE B   00     27.832  70.865   5.271  0.00  0.00    -0.253 NA
ATOM     25  C6  CHE B   00     25.451  74.003   2.189  0.00  0.00    +0.093 A 
ENDBRANCH   1  25
TORSDOF 2
ENDMDL
MODEL 6
REMARK VINA RESULT:      -5.9      3.310      6.415
REMARK  Name = dock_mp/CHEMBL5/CHEMBL576062.pdb
REMARK  3 active torsions:
REMARK  status: ('A' for Active; 'I' for Inactive)
REMARK    1  A    between atoms: C1_1  and  C2_2
REMARK    2  A    between atoms: C6_7  and  C7_8
REMARK    3  A    between atoms: C9_13  and  C10_14
REMARK                            x       y       z     vdW  Elec       q    Type
REMARK                         _______ _______ _______ _____ _____    ______ ____
ROOT
ATOM      1  C7  CHE B   00     23.542  68.741   9.387  0.00  0.00    +0.108 A 
ATOM      2  N2  CHE B   00     27.210  69.630  10.842  0.00  0.00    -0.223 NA
ATOM      3  C8  CHE B   00     20.782  67.710   8.797  0.00  0.00    +0.157 A 
ATOM      4  N3  CHE B   00     19.858  67.188   8.846  0.00  0.00    -0.337 N 
ATOM      5  S1  CHE B   00     27.244  70.981   8.982  0.00  0.00    -0.050 S 
ATOM      6  C9  CHE B   00     24.481  69.833   8.553  0.00  0.00    +0.068 A 
ATOM      7  H7  CHE B   00     22.618  68.230   9.419  0.00  0.00    +0.144 HD
ATOM      8  H8  CHE B   00     21.690  67.567   9.662  0.00  0.00    +0.144 HD
ENDROOT
BRANCH   6   9
ATOM      9  C10 CHE B   00     22.659  69.841   7.203  0.00  0.00    +0.081 A 
ATOM     10  C11 CHE B   00     24.599  69.300   7.330  0.00  0.00    +0.031 A 
ATOM     11  C12 CHE B   00     19.903  69.958   5.419  0.00  0.00    +0.032 A 
ATOM     12  C13 CHE B   00     28.594  67.701   6.396  0.00  0.00    +0.089 A 
ATOM     13  N4  CHE B   00     28.687  67.280   5.428  0.00  0.00    -0.253 NA
ATOM     14  C14 CHE B   00     26.839  67.407   4.351  0.00  0.00    +0.111 A 
ATOM     15  C15 CHE B   00     26.813  67.522   4.616  0.00  0.00    +0.022 A 
ATOM     16  C16 CHE B   00     20.972  69.240   4.455  0.00  0.00    +0.031 A 
ATOM     17  C17 CHE B   00     27.611  68.029   6.465  0.00  0.00    +0.090 A 
ATOM     18  N5  CHE B   00     25.604  68.872   7.032  0.00  0.00    -0.245 NA
ENDBRANCH   6   9
BRANCH   1  25
ATOM     19  C1  CHE B   00     24.789  71.230  11.413  0.00  0.00    +0.046 C 
ATOM     20  C2  CHE B   00     21.247  67.924  10.176  0.00  0.00    -0.023 A 
ATOM     21  C3  CHE B   00     23.727  70.772  11.682  0.00  0.00    +0.007 A 
ATOM     22  C4  CHE B   00     23.776  70.744  11.611  0.00  0.00    +0.020 A 
ATOM     23  C5  CHE B   00     23.509  69.829  10.719  0.00  0.00    +0.111 A 
ATOM     24  N1  CHE B   00     25.326  70.921  10.628  0.00  0.00    -0.253 NA
ATOM     25  C6  CHE B   00     21.693  67.667   9.525  0.00  0.00    +0.093 A 
ENDBRANCH   1  25
TORSDOF 2
ENDMDL
MODEL 7
REMARK VINA RESULT:      -5.8      3.569      6.105
REMARK  Name = dock_mp/CHEMBL5/CHEMBL576062.pdb
REMARK  3 active torsions:
REMARK  status: ('A' for Active; 'I' for Inactive)
REMARK    1  A    between atoms: C1_1  and  C2_2
REMARK    2  A    between atoms: C6_7  and  C7_8
REMARK    3  A    between atoms: C9_13  and  C10_14
REMARK                            x       y       z     vdW  Elec       q    Type
REMARK                         _______ _______ _______ _____ _____    ______ ____
ROOT
ATOM      1  C7  CHE B   00     23.093  67.694  12.305  0.00  0.00    +0.108 A 
ATOM      2  N2  CHE B   00     24.041  70.363   9.418  0.00  0.00    -0.223 NA
ATOM      3  C8  CHE B   00     22.884  65.408  14.244  0.00  0.00    +0.157 A 
ATOM      4  N3  CHE B   00     23.060  64.507  14.780  0.00  0.00    -0.337 N 
ATOM      5  S1  CHE B   00     22.178  71.418  10.259  0.00  0.00    -0.050 S 
ATOM      6  C9  CHE B   00     22.131  69.040  12.124  0.00  0.00    +0.068 A 
ATOM      7  H7  CHE B   00     23.253  66.803  12.848  0.00  0.00    +0.144 HD
ATOM      8  H8  CHE B   00     23.623  65.791  13.296  0.00  0.00    +0.144 HD
ENDROOT
BRANCH   6   9
ATOM      9  C10 CHE B   00     21.033  68.058  13.849  0.00  0.00    +0.081 A 
ATOM     10  C11 CHE B   00     21.052  68.296  11.845  0.00  0.00    +0.031 A 
ATOM     11  C12 CHE B   00     19.599  66.733  16.492  0.00  0.00    +0.032 A 
ATOM     12  C13 CHE B   00     20.044  68.048   7.567  0.00  0.00    +0.089 A 
ATOM     13  N4  CHE B   00     19.191  67.459   7.346  0.00  0.00    -0.253 NA
ATOM     14  C14 CHE B   00     18.334  66.644   9.133  0.00  0.00    +0.111 A 
ATOM     15  C15 CHE B   00     18.568  66.805   9.194  0.00  0.00    +0.022 A 
ATOM     16  C16 CHE B   00     18.703  66.227  15.256  0.00  0.00    +0.031 A 
ATOM     17  C17 CHE B   00     20.151  68.010   8.599  0.00  0.00    +0.090 A 
ATOM     18  N5  CHE B   00     20.744  68.195  10.761  0.00  0.00    -0.245 NA
ENDBRANCH   6   9
BRANCH   1  25
ATOM     19  C1  CHE B   00     24.814  70.676  12.368  0.00  0.00    +0.046 C 
ATOM     20  C2  CHE B   00     24.159  65.940  13.837  0.00  0.00    -0.023 A 
ATOM     21  C3  CHE B   00     25.218  69.785  13.042  0.00  0.00    +0.007 A 
ATOM     22  C4  CHE B   00     25.145  69.777  12.990  0.00  0.00    +0.020 A 
ATOM     23  C5  CHE B   00     24.346  68.760  12.809  0.00  0.00    +0.111 A 
ATOM     24  N1  CHE B   00     24.002  70.590  11.791  0.00  0.00    -0.253 NA
ATOM     25  C6  CHE B   00     23.485  65.869  13.358  0.00  0.00    +0.093 A 
ENDBRANCH   1  25
TORSDOF 2
ENDMDL
MODEL 8
REMARK VINA RESULT:      -5.8      4.395      6.634
REMARK  Name = dock_mp/CHEMBL5/CHEMBL576062.pdb
REMARK  3 active torsions:
REMARK  status: ('A' for Active; 'I' for Inactive)
REMARK    1  A    between atoms: C1_1  and  C2_2
REMARK    2  A    between atoms: C6_7  and  C7_8
REMARK    3  A    between atoms: C9_13  and  C10_14
REMARK                            x       y       z     vdW  Elec       q    Type
REMARK                         _______ _______ _______ _____ _____    ______ ____
ROOT
ATOM      1  C7  CHE B   00     23.833  69.115  12.978  0.00  0.00    +0.108 A 
ATOM      2  N2  CHE B   00     21.794  71.378  10.317  0.00  0.00    -0.223 NA
ATOM      3  C8  CHE B   00     25.411  67.965  15.262  0.00  0.00    +0.157 A 
ATOM      4  N3  CHE B   00     25.961  67.849  16.164  0.00  0.00    -0.337 N 
ATOM      5  S1  CHE B   00     21.612  69.349   9.250  0.00  0.00    -0.050 S 
ATOM      6  C9  CHE B   00     23.206  68.375  11.626  0.00  0.00    +0.068 A 
ATOM      7  H7  CHE B   00     24.382  68.982  13.871  0.00  0.00    +0.144 HD
ATOM      8  H8  CHE B   00     24.951  69.078  14.884  0.00  0.00    +0.144 HD
ENDROOT
BRANCH   6   9
ATOM      9  C10 CHE B   00     24.164  66.564  12.600  0.00  0.00    +0.081 A 
ATOM     10  C11 CHE B   00     22.443  67.601  12.410  0.00  0.00    +0.031 A 
ATOM     11  C12 CHE B   00     25.753  64.001  13.905  0.00  0.00    +0.032 A 
ATOM     12  C13 CHE B   00     18.261  68.923  12.790  0.00  0.00    +0.089 A 
ATOM     13  N4  CHE B   00     17.657  68.310  13.410  0.00  0.00    -0.253 NA
ATOM     14  C14 CHE B   00     18.786  66.673  14.208  0.00  0.00    +0.111 A 
ATOM     15  C15 CHE B   00     18.951  66.840  14.038  0.00  0.00    +0.022 A 
ATOM     16  C16 CHE B   00     24.251  63.869  14.468  0.00  0.00    +0.031 A 
ATOM     17  C17 CHE B   00     19.204  68.488  12.800  0.00  0.00    +0.090 A 
ATOM     18  N5  CHE B   00     21.358  67.891  12.546  0.00  0.00    -0.245 NA
ENDBRANCH   6   9
BRANCH   1  25
ATOM     19  C1  CHE B   00     24.614  70.858  10.113  0.00  0.00    +0.046 C 
ATOM     20  C2  CHE B   00     25.648  69.354  14.769  0.00  0.00    -0.023 A 
ATOM     21  C3  CHE B   00     25.385  70.896  11.016  0.00  0.00    +0.007 A 
ATOM     22  C4  CHE B   00     25.308  70.849  11.020  0.00  0.00    +0.020 A 
ATOM     23  C5  CHE B   00     24.810  70.126  11.987  0.00  0.00    +0.111 A 
ATOM     24  N1  CHE B   00     23.757  70.344  10.157  0.00  0.00    -0.253 NA
ATOM     25  C6  CHE B   00     24.937  68.928  14.805  0.00  0.00    +0.093 A 
ENDBRANCH   1  25
TORSDOF 2
ENDMDL
MODEL 9
REMARK VINA RESULT:      -5.8      3.582      6.445
REMARK  Name = dock_mp/CHEMBL5/CHEMBL576062.pdb
REMARK  3 active torsions:
REMARK  status: ('A' for Active; 'I' for Inactive)
REMARK    1  A    between atoms: C1_1  and  C2_2
REMARK    2  A    between atoms: C6_7  and  C7_8
REMARK    3  A    between atoms: C9_13  and  C10_14
REMARK                            x       y       z     vdW  Elec       q    Type
REMARK                         _______ _______ _______ _____ _____    ______ ____
ROOT
ATOM      1  C7  CHE B   00     23.256  69.086   8.918  0.00  0.00    +0.108 A 
ATOM      2  N2  CHE B   00     23.935  68.217  12.809  0.00  0.00    -0.223 NA
ATOM      3  C8  CHE B   00     22.160  69.745   6.198  0.00  0.00    +0.157 A 
ATOM      4  N3  CHE B   00     21.508  69.968   5.390  0.00  0.00    -0.337 N 
ATOM      5  S1  CHE B   00     26.112  68.190  12.069  0.00  0.00    -0.050 S 
ATOM      6  C9  CHE B   00     24.827  68.851   9.414  0.00  0.00    +0.068 A 
ATOM      7  H7  CHE B   00     22.623  69.309   8.102  0.00  0.00    +0.144 HD
ATOM      8  H8  CHE B   00     21.743  69.535   7.371  0.00  0.00    +0.144 HD
ENDROOT
BRANCH   6   9
ATOM      9  C10 CHE B   00     25.217  69.277   7.221  0.00  0.00    +0.081 A 
ATOM     10  C11 CHE B   00     25.268  67.847   8.644  0.00  0.00    +0.031 A 
ATOM     11  C12 CHE B   00     25.714  70.114   4.082  0.00  0.00    +0.032 A 
ATOM     12  C13 CHE B   00     25.800  64.014  10.744  0.00  0.00    +0.089 A 
ATOM     13  N4  CHE B   00     26.149  63.220  10.135  0.00  0.00    -0.253 NA
ATOM     14  C14 CHE B   00     26.440  63.871   8.114  0.00  0.00    +0.111 A 
ATOM     15  C15 CHE B   00     26.345  64.088   8.280  0.00  0.00    +0.022 A 
ATOM     16  C16 CHE B   00     26.111  68.557   4.148  0.00  0.00    +0.031 A 
ATOM     17  C17 CHE B   00     25.726  64.838  10.116  0.00  0.00    +0.090 A 
ATOM     18  N5  CHE B   00     25.424  66.837   9.129  0.00  0.00    -0.245 NA
ENDBRANCH   6   9
BRANCH   1  25
ATOM     19  C1  CHE B   00     24.044  70.946  11.706  0.00  0.00    +0.046 C 
ATOM     20  C2  CHE B   00     21.542  70.271   7.429  0.00  0.00    -0.023 A 
ATOM     21  C3  CHE B   00     23.256  71.396  10.940  0.00  0.00    +0.007 A 
ATOM     22  C4  CHE B   00     23.296  71.316  10.928  0.00  0.00    +0.020 A 
ATOM     23  C5  CHE B   00     23.154  70.450   9.961  0.00  0.00    +0.111 A 
ATOM     24  N1  CHE B   00     24.480  70.056  11.570  0.00  0.00    -0.253 NA
ATOM     25  C6  CHE B   00     21.904  69.533   7.316  0.00  0.00    +0.093 A 
ENDBRANCH   1  25
TORSDOF 2
ENDMDL
MODEL 10
REMARK VINA RESULT:      -5.7      4.449      7.176
REMARK  Name = dock_mp/CHEMBL5/CHEMBL576062.pdb
REMARK  3 active torsions:
REMARK  status: ('A' for Active; 'I' for Inactive)
REMARK    1  A    between atoms: C1_1  and  C2_2
REMARK    2  A    between atoms: C6_7  and  C7_8
REMARK    3  A    between atoms: C9_13  and  C10_14
REMARK                            x       y       z     vdW  Elec       q    Type
REMARK                         _______ _______ _______ _____ _____    ______ ____
ROOT
ATOM      1  C7  CHE B   00     22.644  68.358  11.985  0.00  0.00    +0.108 A 
ATOM      2  N2  CHE B   00     24.172  68.956   8.288  0.00  0.00    -0.223 NA
ATOM      3  C8  CHE B   00     20.980  67.822  14.429  0.00  0.00    +0.157 A 
ATOM      4  N3  CHE B   00     20.172  67.600  15.083  0.00  0.00    -0.337 N 
ATOM      5  S1  CHE B   00     26.094  69.283   9.508  0.00  0.00    -0.050 S 
ATOM      6  C9  CHE B   00     24.263  68.718  11.846  0.00  0.00    +0.068 A 
ATOM      7  H7  CHE B   00     21.853  68.139  12.649  0.00  0.00    +0.144 HD
ATOM      8  H8  CHE B   00     20.844  67.883  13.176  0.00  0.00    +0.144 HD
ENDROOT
BRANCH   6   9
ATOM      9  C10 CHE B   00     24.143  68.529  14.103  0.00  0.00    +0.081 A 
ATOM     10  C11 CHE B   00     24.607  67.548  12.402  0.00  0.00    +0.031 A 
ATOM     11  C12 CHE B   00     23.894  68.477  17.379  0.00  0.00    +0.032 A 
ATOM     12  C13 CHE B   00     25.869  64.452   9.538  0.00  0.00    +0.089 A 
ATOM     13  N4  CHE B   00     26.141  63.526   9.977  0.00  0.00    -0.253 NA
ATOM     14  C14 CHE B   00     25.943  63.599  12.110  0.00  0.00    +0.111 A 
ATOM     15  C15 CHE B   00     25.869  63.852  11.990  0.00  0.00    +0.022 A 
ATOM     16  C16 CHE B   00     24.414  67.004  16.995  0.00  0.00    +0.031 A 
ATOM     17  C17 CHE B   00     25.600  65.069  10.328  0.00  0.00    +0.090 A 
ATOM     18  N5  CHE B   00     24.940  66.713  11.715  0.00  0.00    -0.245 NA
ENDBRANCH   6   9
BRANCH   1  25
ATOM     19  C1  CHE B   00     23.193  71.116   9.997  0.00  0.00    +0.046 C 
ATOM     20  C2  CHE B   00     20.421  68.515  13.246  0.00  0.00    -0.023 A 
ATOM     21  C3  CHE B   00     22.190  71.077  10.631  0.00  0.00    +0.007 A 
ATOM     22  C4  CHE B   00     22.251  71.011  10.633  0.00  0.00    +0.020 A 
ATOM     23  C5  CHE B   00     22.257  69.889  11.303  0.00  0.00    +0.111 A 
ATOM     24  N1  CHE B   00     23.874  70.384  10.020  0.00  0.00    -0.253 NA
ATOM     25  C6  CHE B   00     20.986  67.907  13.266  0.00  0.00    +0.093 A 
ENDBRANCH   1  25
TORSDOF 2
ENDMDL
