MODEL 1
REMARK VINA RESULT:     -12.3      0.000      0.000
REMARK  Name = dock_mp/CHEMBL5/CHEMBL566234.pdb
REMARK  6 active torsions:
REMARK  status: ('A' for Active; 'I' for Inactive)
REMARK    1  A    between atoms: C4_5  and  N1_6
REMARK    2  A    between atoms: N1_6  and  C5_7
REMARK    3  A    between atoms: C5_7  and  C6_8
REMARK    4  A    between atoms: C9_11  and  C10_12
REMARK    5  A    between atoms: C12_14  and  C13_15
REMARK    6  A    between atoms: C15_19  and  C16_20
REMARK                            x       y       z     vdW  Elec       q    Type
REMARK                         _______ _______ _______ _____ _____    ______ ____
ROOT
ATOM      1  C10 CHE B   02     19.755  67.538   8.074  0.00  0.00    +0.072 A 
ATOM      2  C11 CHE B   02     20.957  69.116   7.216  0.00  0.00    +0.037 A 
ATOM      3  C12 CHE B   02     19.602  67.606   5.920  0.00  0.00    -0.011 A 
ATOM      4  C21 CHE B   02     21.457  69.950   5.361  0.00  0.00    +0.028 A 
ATOM      5  C22 CHE B   02     20.887  69.147   6.229  0.00  0.00    +0.112 A 
ATOM      6  N5  CHE B   02     22.240  70.659   7.494  0.00  0.00    -0.255 NA
ENDROOT
BRANCH   1  10
ATOM      7  C6  CHE B   02     21.148  69.128  12.137  0.00  0.00    -0.064 A 
ATOM      8  C7  CHE B   02     22.787  70.257  11.458  0.00  0.00    +0.002 A 
ATOM      9  C8  CHE B   02     20.448  68.339  10.165  0.00  0.00    +0.010 A 
ATOM     10  C9  CHE B   02     20.485  68.270   9.459  0.00  0.00    +0.000 A 
ATOM     11  C23 CHE B   02     20.452  68.332  10.095  0.00  0.00    +0.010 A 
ATOM     12  C24 CHE B   02     21.186  69.056  11.401  0.00  0.00    +0.002 A 
BRANCH   7  13
ATOM     13  C5  CHE B   02     20.270  68.672  13.604  0.00  0.00    -0.046 C 
BRANCH  13  14
ATOM     14  N1  CHE B   02     20.145  67.336  15.304  0.00  0.00    +0.385 N 
ATOM     15  H8  CHE B   02     19.003  68.159  12.600  0.00  0.00    -0.085 HD
ATOM     16  H9  CHE B   02     19.867  68.927  12.700  0.00  0.00    -0.085 HD
BRANCH  14  21
ATOM     17  C1  CHE B   02     16.269  68.075   9.944  0.00  0.00    +0.026 C 
ATOM     18  C2  CHE B   02     18.654  66.210  15.222  0.00  0.00    +0.159 C 
ATOM     19  O1  CHE B   02     19.084  67.757  13.530  0.00  0.00    -0.381 OA
ATOM     20  C3  CHE B   02     19.682  66.987  15.278  0.00  0.00    +0.144 C 
ATOM     21  C4  CHE B   02     20.177  65.528  17.879  0.00  0.00    -0.045 C 
ATOM     22  C25 CHE B   02     19.101  64.715  17.819  0.00  0.00    -0.011 C 
ENDBRANCH  14  21
ENDBRANCH  13  14
ENDBRANCH   7  13
ENDBRANCH   1  10
BRANCH   3  23
ATOM     23  C13 CHE B   02     20.174  68.408   5.082  0.00  0.00    +0.029 A 
ATOM     24  C14 CHE B   02     15.758  66.434   6.371  0.00  0.00    +0.114 A 
ATOM     25  N2  CHE B   02     20.778  69.168   4.305  0.00  0.00    -0.284 N 
ATOM     26  N3  CHE B   02     19.551  69.223   3.921  0.00  0.00    -0.172 NA
ATOM     27  C15 CHE B   02     19.724  68.997   4.243  0.00  0.00    +0.118 A 
ATOM     28  H16 CHE B   02     15.304  67.028   5.524  0.00  0.00    +0.188 HD
BRANCH  27  29
ATOM     29  C16 CHE B   02     15.864  67.846   4.663  0.00  0.00    +0.091 A 
ATOM     30  C17 CHE B   02     15.514  67.841   3.401  0.00  0.00    +0.030 A 
ATOM     31  C18 CHE B   02     17.181  68.413   2.242  0.00  0.00    +0.004 A 
ATOM     32  C19 CHE B   02     21.056  69.564   1.879  0.00  0.00    +0.020 A 
ATOM     33  C20 CHE B   02     21.403  69.569   3.132  0.00  0.00    +0.111 A 
ATOM     34  N4  CHE B   02     20.649  69.284   3.996  0.00  0.00    -0.253 NA
ENDBRANCH  27  29
ENDBRANCH   3  23
TORSDOF 6
ENDMDL
MODEL 2
REMARK VINA RESULT:     -11.9      4.516      9.432
REMARK  Name = dock_mp/CHEMBL5/CHEMBL566234.pdb
REMARK  6 active torsions:
REMARK  status: ('A' for Active; 'I' for Inactive)
REMARK    1  A    between atoms: C4_5  and  N1_6
REMARK    2  A    between atoms: N1_6  and  C5_7
REMARK    3  A    between atoms: C5_7  and  C6_8
REMARK    4  A    between atoms: C9_11  and  C10_12
REMARK    5  A    between atoms: C12_14  and  C13_15
REMARK    6  A    between atoms: C15_19  and  C16_20
REMARK                            x       y       z     vdW  Elec       q    Type
REMARK                         _______ _______ _______ _____ _____    ______ ____
ROOT
ATOM      1  C10 CHE B   02     20.396  68.504   5.407  0.00  0.00    +0.072 A 
ATOM      2  C11 CHE B   02     18.947  68.642   3.808  0.00  0.00    +0.037 A 
ATOM      3  C12 CHE B   02     18.454  67.762   5.994  0.00  0.00    -0.011 A 
ATOM      4  C21 CHE B   02     16.938  68.219   3.398  0.00  0.00    +0.028 A 
ATOM      5  C22 CHE B   02     18.057  68.301   4.077  0.00  0.00    +0.112 A 
ATOM      6  N5  CHE B   02     18.523  69.171   1.899  0.00  0.00    -0.255 NA
ENDROOT
BRANCH   1  10
ATOM      7  C6  CHE B   02     23.304  70.542   2.514  0.00  0.00    -0.064 A 
ATOM      8  C7  CHE B   02     22.231  70.199   0.738  0.00  0.00    +0.002 A 
ATOM      9  C8  CHE B   02     21.900  69.553   3.946  0.00  0.00    +0.010 A 
ATOM     10  C9  CHE B   02     21.307  69.199   4.112  0.00  0.00    +0.000 A 
ATOM     11  C23 CHE B   02     21.841  69.518   3.963  0.00  0.00    +0.010 A 
ATOM     12  C24 CHE B   02     22.686  70.173   2.687  0.00  0.00    +0.002 A 
BRANCH   7  13
ATOM     13  C5  CHE B   02     24.787  71.279   3.136  0.00  0.00    -0.046 C 
BRANCH  13  14
ATOM     14  N1  CHE B   02     25.850  73.109   3.595  0.00  0.00    +0.385 N 
ATOM     15  H8  CHE B   02     26.024  70.132   2.966  0.00  0.00    -0.085 HD
ATOM     16  H9  CHE B   02     24.875  70.283   2.928  0.00  0.00    -0.085 HD
BRANCH  14  21
ATOM     17  C1  CHE B   02     27.933  66.833   2.847  0.00  0.00    +0.026 C 
ATOM     18  C2  CHE B   02     27.684  72.832   3.833  0.00  0.00    +0.159 C 
ATOM     19  O1  CHE B   02     26.260  71.060   3.309  0.00  0.00    -0.381 OA
ATOM     20  C3  CHE B   02     26.419  73.023   3.669  0.00  0.00    +0.144 C 
ATOM     21  C4  CHE B   02     27.152  75.893   4.273  0.00  0.00    -0.045 C 
ATOM     22  C25 CHE B   02     28.476  75.692   4.445  0.00  0.00    -0.011 C 
ENDBRANCH  14  21
ENDBRANCH  13  14
ENDBRANCH   7  13
ENDBRANCH   1  10
BRANCH   3  23
ATOM     23  C13 CHE B   02     17.362  67.690   5.306  0.00  0.00    +0.029 A 
ATOM     24  C14 CHE B   02     19.163  68.531   9.900  0.00  0.00    +0.114 A 
ATOM     25  N2  CHE B   02     16.344  67.607   4.595  0.00  0.00    -0.284 N 
ATOM     26  N3  CHE B   02     15.895  67.882   5.769  0.00  0.00    -0.172 NA
ATOM     27  C15 CHE B   02     16.302  67.829   5.640  0.00  0.00    +0.118 A 
ATOM     28  H16 CHE B   02     18.093  68.671  10.237  0.00  0.00    +0.188 HD
BRANCH  27  29
ATOM     29  C16 CHE B   02     16.972  68.603   9.558  0.00  0.00    +0.091 A 
ATOM     30  C17 CHE B   02     16.120  67.757  10.082  0.00  0.00    +0.030 A 
ATOM     31  C18 CHE B   02     15.143  66.735   8.517  0.00  0.00    +0.004 A 
ATOM     32  C19 CHE B   02     14.511  65.999   4.575  0.00  0.00    +0.020 A 
ATOM     33  C20 CHE B   02     15.358  66.838   4.055  0.00  0.00    +0.111 A 
ATOM     34  N4  CHE B   02     16.038  67.540   4.720  0.00  0.00    -0.253 NA
ENDBRANCH  27  29
ENDBRANCH   3  23
TORSDOF 6
ENDMDL
MODEL 3
REMARK VINA RESULT:     -11.5      4.588      8.842
REMARK  Name = dock_mp/CHEMBL5/CHEMBL566234.pdb
REMARK  6 active torsions:
REMARK  status: ('A' for Active; 'I' for Inactive)
REMARK    1  A    between atoms: C4_5  and  N1_6
REMARK    2  A    between atoms: N1_6  and  C5_7
REMARK    3  A    between atoms: C5_7  and  C6_8
REMARK    4  A    between atoms: C9_11  and  C10_12
REMARK    5  A    between atoms: C12_14  and  C13_15
REMARK    6  A    between atoms: C15_19  and  C16_20
REMARK                            x       y       z     vdW  Elec       q    Type
REMARK                         _______ _______ _______ _____ _____    ______ ____
ROOT
ATOM      1  C10 CHE B   02     20.035  68.237   5.381  0.00  0.00    +0.072 A 
ATOM      2  C11 CHE B   02     18.616  68.512   3.775  0.00  0.00    +0.037 A 
ATOM      3  C12 CHE B   02     18.062  67.529   5.901  0.00  0.00    -0.011 A 
ATOM      4  C21 CHE B   02     16.599  68.182   3.316  0.00  0.00    +0.028 A 
ATOM      5  C22 CHE B   02     17.711  68.188   4.013  0.00  0.00    +0.112 A 
ATOM      6  N5  CHE B   02     18.237  69.162   1.894  0.00  0.00    -0.255 NA
ENDROOT
BRANCH   1  10
ATOM      7  C6  CHE B   02     23.095  70.235   2.621  0.00  0.00    -0.064 A 
ATOM      8  C7  CHE B   02     21.920  70.288   0.877  0.00  0.00    +0.002 A 
ATOM      9  C8  CHE B   02     21.619  69.261   3.988  0.00  0.00    +0.010 A 
ATOM     10  C9  CHE B   02     20.988  68.971   4.139  0.00  0.00    +0.000 A 
ATOM     11  C23 CHE B   02     21.556  69.232   4.003  0.00  0.00    +0.010 A 
ATOM     12  C24 CHE B   02     22.438  69.933   2.779  0.00  0.00    +0.002 A 
BRANCH   7  13
ATOM     13  C5  CHE B   02     24.690  70.673   3.251  0.00  0.00    -0.046 C 
BRANCH  13  14
ATOM     14  N1  CHE B   02     26.330  70.146   4.563  0.00  0.00    +0.385 N 
ATOM     15  H8  CHE B   02     25.043  72.267   2.792  0.00  0.00    -0.085 HD
ATOM     16  H9  CHE B   02     24.281  71.402   2.664  0.00  0.00    -0.085 HD
BRANCH  14  21
ATOM     17  C1  CHE B   02     25.146  75.572   0.895  0.00  0.00    +0.026 C 
ATOM     18  C2  CHE B   02     27.640  71.478   4.643  0.00  0.00    +0.159 C 
ATOM     19  O1  CHE B   02     25.732  71.748   3.328  0.00  0.00    -0.381 OA
ATOM     20  C3  CHE B   02     26.736  70.559   4.588  0.00  0.00    +0.144 C 
ATOM     21  C4  CHE B   02     28.596  69.136   6.499  0.00  0.00    -0.045 C 
ATOM     22  C25 CHE B   02     29.541  70.098   6.556  0.00  0.00    -0.011 C 
ENDBRANCH  14  21
ENDBRANCH  13  14
ENDBRANCH   7  13
ENDBRANCH   1  10
BRANCH   3  23
ATOM     23  C13 CHE B   02     16.978  67.532   5.197  0.00  0.00    +0.029 A 
ATOM     24  C14 CHE B   02     18.802  68.490   9.758  0.00  0.00    +0.114 A 
ATOM     25  N2  CHE B   02     15.967  67.516   4.471  0.00  0.00    -0.284 N 
ATOM     26  N3  CHE B   02     15.537  67.923   5.613  0.00  0.00    -0.172 NA
ATOM     27  C15 CHE B   02     15.936  67.815   5.498  0.00  0.00    +0.118 A 
ATOM     28  H16 CHE B   02     17.752  68.775  10.062  0.00  0.00    +0.188 HD
BRANCH  27  29
ATOM     29  C16 CHE B   02     16.639  68.786   9.365  0.00  0.00    +0.091 A 
ATOM     30  C17 CHE B   02     15.898  67.873   9.943  0.00  0.00    +0.030 A 
ATOM     31  C18 CHE B   02     14.989  66.701   8.443  0.00  0.00    +0.004 A 
ATOM     32  C19 CHE B   02     14.320  65.772   4.549  0.00  0.00    +0.020 A 
ATOM     33  C20 CHE B   02     15.056  66.678   3.976  0.00  0.00    +0.111 A 
ATOM     34  N4  CHE B   02     15.677  67.469   4.596  0.00  0.00    -0.253 NA
ENDBRANCH  27  29
ENDBRANCH   3  23
TORSDOF 6
ENDMDL
MODEL 4
REMARK VINA RESULT:     -11.3      4.452      9.143
REMARK  Name = dock_mp/CHEMBL5/CHEMBL566234.pdb
REMARK  6 active torsions:
REMARK  status: ('A' for Active; 'I' for Inactive)
REMARK    1  A    between atoms: C4_5  and  N1_6
REMARK    2  A    between atoms: N1_6  and  C5_7
REMARK    3  A    between atoms: C5_7  and  C6_8
REMARK    4  A    between atoms: C9_11  and  C10_12
REMARK    5  A    between atoms: C12_14  and  C13_15
REMARK    6  A    between atoms: C15_19  and  C16_20
REMARK                            x       y       z     vdW  Elec       q    Type
REMARK                         _______ _______ _______ _____ _____    ______ ____
ROOT
ATOM      1  C10 CHE B   02     20.227  68.381   5.432  0.00  0.00    +0.072 A 
ATOM      2  C11 CHE B   02     18.806  68.573   3.815  0.00  0.00    +0.037 A 
ATOM      3  C12 CHE B   02     18.263  67.666   5.978  0.00  0.00    -0.011 A 
ATOM      4  C21 CHE B   02     16.795  68.195   3.368  0.00  0.00    +0.028 A 
ATOM      5  C22 CHE B   02     17.905  68.245   4.065  0.00  0.00    +0.112 A 
ATOM      6  N5  CHE B   02     18.420  69.142   1.910  0.00  0.00    -0.255 NA
ENDROOT
BRANCH   1  10
ATOM      7  C6  CHE B   02     23.273  70.282   2.590  0.00  0.00    -0.064 A 
ATOM      8  C7  CHE B   02     22.069  70.331   0.866  0.00  0.00    +0.002 A 
ATOM      9  C8  CHE B   02     21.804  69.355   3.997  0.00  0.00    +0.010 A 
ATOM     10  C9  CHE B   02     21.171  69.079   4.163  0.00  0.00    +0.000 A 
ATOM     11  C23 CHE B   02     21.741  69.328   4.013  0.00  0.00    +0.010 A 
ATOM     12  C24 CHE B   02     22.614  69.995   2.763  0.00  0.00    +0.002 A 
BRANCH   7  13
ATOM     13  C5  CHE B   02     24.887  70.700   3.185  0.00  0.00    -0.046 C 
BRANCH  13  14
ATOM     14  N1  CHE B   02     27.021  70.656   2.825  0.00  0.00    +0.385 N 
ATOM     15  H8  CHE B   02     24.763  70.537   4.869  0.00  0.00    -0.085 HD
ATOM     16  H9  CHE B   02     24.150  70.657   3.892  0.00  0.00    -0.085 HD
BRANCH  14  21
ATOM     17  C1  CHE B   02     23.367  69.002   8.136  0.00  0.00    +0.026 C 
ATOM     18  C2  CHE B   02     27.975  69.982   4.285  0.00  0.00    +0.159 C 
ATOM     19  O1  CHE B   02     25.655  70.210   4.369  0.00  0.00    -0.381 OA
ATOM     20  C3  CHE B   02     27.317  70.447   3.278  0.00  0.00    +0.144 C 
ATOM     21  C4  CHE B   02     30.067  70.622   2.036  0.00  0.00    -0.045 C 
ATOM     22  C25 CHE B   02     30.756  70.136   3.090  0.00  0.00    -0.011 C 
ENDBRANCH  14  21
ENDBRANCH  13  14
ENDBRANCH   7  13
ENDBRANCH   1  10
BRANCH   3  23
ATOM     23  C13 CHE B   02     17.180  67.626   5.273  0.00  0.00    +0.029 A 
ATOM     24  C14 CHE B   02     18.945  68.520   9.871  0.00  0.00    +0.114 A 
ATOM     25  N2  CHE B   02     16.172  67.572   4.546  0.00  0.00    -0.284 N 
ATOM     26  N3  CHE B   02     15.717  67.904   5.703  0.00  0.00    -0.172 NA
ATOM     27  C15 CHE B   02     16.123  67.827   5.584  0.00  0.00    +0.118 A 
ATOM     28  H16 CHE B   02     17.879  68.723  10.185  0.00  0.00    +0.188 HD
BRANCH  27  29
ATOM     29  C16 CHE B   02     16.767  68.688   9.488  0.00  0.00    +0.091 A 
ATOM     30  C17 CHE B   02     15.958  67.810  10.027  0.00  0.00    +0.030 A 
ATOM     31  C18 CHE B   02     15.027  66.719   8.480  0.00  0.00    +0.004 A 
ATOM     32  C19 CHE B   02     14.421  65.898   4.551  0.00  0.00    +0.020 A 
ATOM     33  C20 CHE B   02     15.223  66.770   4.017  0.00  0.00    +0.111 A 
ATOM     34  N4  CHE B   02     15.871  67.513   4.669  0.00  0.00    -0.253 NA
ENDBRANCH  27  29
ENDBRANCH   3  23
TORSDOF 6
ENDMDL
MODEL 5
REMARK VINA RESULT:     -11.3      3.040      5.986
REMARK  Name = dock_mp/CHEMBL5/CHEMBL566234.pdb
REMARK  6 active torsions:
REMARK  status: ('A' for Active; 'I' for Inactive)
REMARK    1  A    between atoms: C4_5  and  N1_6
REMARK    2  A    between atoms: N1_6  and  C5_7
REMARK    3  A    between atoms: C5_7  and  C6_8
REMARK    4  A    between atoms: C9_11  and  C10_12
REMARK    5  A    between atoms: C12_14  and  C13_15
REMARK    6  A    between atoms: C15_19  and  C16_20
REMARK                            x       y       z     vdW  Elec       q    Type
REMARK                         _______ _______ _______ _____ _____    ______ ____
ROOT
ATOM      1  C10 CHE B   02     20.167  67.927   8.055  0.00  0.00    +0.072 A 
ATOM      2  C11 CHE B   02     18.169  67.810   8.872  0.00  0.00    +0.037 A 
ATOM      3  C12 CHE B   02     18.695  67.439   6.552  0.00  0.00    -0.011 A 
ATOM      4  C21 CHE B   02     16.195  67.428   8.285  0.00  0.00    +0.028 A 
ATOM      5  C22 CHE B   02     17.494  67.586   8.183  0.00  0.00    +0.112 A 
ATOM      6  N5  CHE B   02     16.948  67.951  10.481  0.00  0.00    -0.255 NA
ENDROOT
BRANCH   1  10
ATOM      7  C6  CHE B   02     21.519  69.014  12.294  0.00  0.00    -0.064 A 
ATOM      8  C7  CHE B   02     19.682  68.704  13.271  0.00  0.00    +0.002 A 
ATOM      9  C8  CHE B   02     20.883  68.488  10.215  0.00  0.00    +0.010 A 
ATOM     10  C9  CHE B   02     20.408  68.280   9.730  0.00  0.00    +0.000 A 
ATOM     11  C23 CHE B   02     20.836  68.468  10.167  0.00  0.00    +0.010 A 
ATOM     12  C24 CHE B   02     21.024  68.797  11.788  0.00  0.00    +0.002 A 
BRANCH   7  13
ATOM     13  C5  CHE B   02     23.195  69.502  12.581  0.00  0.00    -0.046 C 
BRANCH  13  14
ATOM     14  N1  CHE B   02     24.962  70.477  11.796  0.00  0.00    +0.385 N 
ATOM     15  H8  CHE B   02     23.645  69.074  14.160  0.00  0.00    -0.085 HD
ATOM     16  H9  CHE B   02     22.779  69.035  13.389  0.00  0.00    -0.085 HD
BRANCH  14  21
ATOM     17  C1  CHE B   02     23.258  68.655  17.966  0.00  0.00    +0.026 C 
ATOM     18  C2  CHE B   02     26.196  70.902  13.135  0.00  0.00    +0.159 C 
ATOM     19  O1  CHE B   02     24.202  69.804  13.645  0.00  0.00    -0.381 OA
ATOM     20  C3  CHE B   02     25.345  70.609  12.211  0.00  0.00    +0.144 C 
ATOM     21  C4  CHE B   02     27.391  71.931  10.422  0.00  0.00    -0.045 C 
ATOM     22  C25 CHE B   02     28.282  72.237  11.389  0.00  0.00    -0.011 C 
ENDBRANCH  14  21
ENDBRANCH  13  14
ENDBRANCH   7  13
ENDBRANCH   1  10
BRANCH   3  23
ATOM     23  C13 CHE B   02     17.416  67.288   6.675  0.00  0.00    +0.029 A 
ATOM     24  C14 CHE B   02     20.950  69.419   3.843  0.00  0.00    +0.114 A 
ATOM     25  N2  CHE B   02     16.197  67.108   6.843  0.00  0.00    -0.284 N 
ATOM     26  N3  CHE B   02     16.271  67.838   5.787  0.00  0.00    -0.172 NA
ATOM     27  C15 CHE B   02     16.589  67.685   6.033  0.00  0.00    +0.118 A 
ATOM     28  H16 CHE B   02     20.116  69.820   3.195  0.00  0.00    +0.188 HD
BRANCH  27  29
ATOM     29  C16 CHE B   02     18.815  69.680   3.301  0.00  0.00    +0.091 A 
ATOM     30  C17 CHE B   02     18.178  69.317   2.215  0.00  0.00    +0.030 A 
ATOM     31  C18 CHE B   02     16.586  68.048   2.765  0.00  0.00    +0.004 A 
ATOM     32  C19 CHE B   02     14.389  66.070   5.547  0.00  0.00    +0.020 A 
ATOM     33  C20 CHE B   02     15.021  66.430   6.624  0.00  0.00    +0.111 A 
ATOM     34  N4  CHE B   02     15.961  67.146   6.594  0.00  0.00    -0.253 NA
ENDBRANCH  27  29
ENDBRANCH   3  23
TORSDOF 6
ENDMDL
MODEL 6
REMARK VINA RESULT:     -11.2      1.421      2.086
REMARK  Name = dock_mp/CHEMBL5/CHEMBL566234.pdb
REMARK  6 active torsions:
REMARK  status: ('A' for Active; 'I' for Inactive)
REMARK    1  A    between atoms: C4_5  and  N1_6
REMARK    2  A    between atoms: N1_6  and  C5_7
REMARK    3  A    between atoms: C5_7  and  C6_8
REMARK    4  A    between atoms: C9_11  and  C10_12
REMARK    5  A    between atoms: C12_14  and  C13_15
REMARK    6  A    between atoms: C15_19  and  C16_20
REMARK                            x       y       z     vdW  Elec       q    Type
REMARK                         _______ _______ _______ _____ _____    ______ ____
ROOT
ATOM      1  C10 CHE B   02     19.792  67.517   7.881  0.00  0.00    +0.072 A 
ATOM      2  C11 CHE B   02     21.016  69.102   7.068  0.00  0.00    +0.037 A 
ATOM      3  C12 CHE B   02     19.638  67.650   5.730  0.00  0.00    -0.011 A 
ATOM      4  C21 CHE B   02     21.526  69.983   5.238  0.00  0.00    +0.028 A 
ATOM      5  C22 CHE B   02     20.945  69.163   6.082  0.00  0.00    +0.112 A 
ATOM      6  N5  CHE B   02     22.321  70.617   7.390  0.00  0.00    -0.255 NA
ENDROOT
BRANCH   1  10
ATOM      7  C6  CHE B   02     21.475  68.721  11.966  0.00  0.00    -0.064 A 
ATOM      8  C7  CHE B   02     22.425  70.501  11.374  0.00  0.00    +0.002 A 
ATOM      9  C8  CHE B   02     20.643  68.112   9.982  0.00  0.00    +0.010 A 
ATOM     10  C9  CHE B   02     20.533  68.197   9.286  0.00  0.00    +0.000 A 
ATOM     11  C23 CHE B   02     20.632  68.120   9.914  0.00  0.00    +0.010 A 
ATOM     12  C24 CHE B   02     21.361  68.810  11.241  0.00  0.00    +0.002 A 
BRANCH   7  13
ATOM     13  C5  CHE B   02     21.174  67.693  13.376  0.00  0.00    -0.046 C 
BRANCH  13  14
ATOM     14  N1  CHE B   02     19.770  67.072  14.903  0.00  0.00    +0.385 N 
ATOM     15  H8  CHE B   02     22.099  66.299  13.094  0.00  0.00    -0.085 HD
ATOM     16  H9  CHE B   02     21.954  67.407  12.781  0.00  0.00    -0.085 HD
BRANCH  14  21
ATOM     17  C1  CHE B   02     25.662  64.636  12.993  0.00  0.00    +0.026 C 
ATOM     18  C2  CHE B   02     20.398  65.611  15.885  0.00  0.00    +0.159 C 
ATOM     19  O1  CHE B   02     21.636  66.487  14.114  0.00  0.00    -0.381 OA
ATOM     20  C3  CHE B   02     19.965  66.619  15.207  0.00  0.00    +0.144 C 
ATOM     21  C4  CHE B   02     17.627  66.422  17.113  0.00  0.00    -0.045 C 
ATOM     22  C25 CHE B   02     18.080  65.367  17.823  0.00  0.00    -0.011 C 
ENDBRANCH  14  21
ENDBRANCH  13  14
ENDBRANCH   7  13
ENDBRANCH   1  10
BRANCH   3  23
ATOM     23  C13 CHE B   02     20.221  68.468   4.916  0.00  0.00    +0.029 A 
ATOM     24  C14 CHE B   02     15.786  66.484   6.120  0.00  0.00    +0.114 A 
ATOM     25  N2  CHE B   02     20.835  69.242   4.160  0.00  0.00    -0.284 N 
ATOM     26  N3  CHE B   02     19.612  69.311   3.766  0.00  0.00    -0.172 NA
ATOM     27  C15 CHE B   02     19.781  69.077   4.085  0.00  0.00    +0.118 A 
ATOM     28  H16 CHE B   02     15.342  67.099   5.282  0.00  0.00    +0.188 HD
BRANCH  27  29
ATOM     29  C16 CHE B   02     15.913  67.933   4.445  0.00  0.00    +0.091 A 
ATOM     30  C17 CHE B   02     15.586  67.920   3.177  0.00  0.00    +0.030 A 
ATOM     31  C18 CHE B   02     17.273  68.483   2.043  0.00  0.00    +0.004 A 
ATOM     32  C19 CHE B   02     21.156  69.628   1.742  0.00  0.00    +0.020 A 
ATOM     33  C20 CHE B   02     21.481  69.641   3.000  0.00  0.00    +0.111 A 
ATOM     34  N4  CHE B   02     20.711  69.362   3.853  0.00  0.00    -0.253 NA
ENDBRANCH  27  29
ENDBRANCH   3  23
TORSDOF 6
ENDMDL
MODEL 7
REMARK VINA RESULT:     -11.1      4.177      8.469
REMARK  Name = dock_mp/CHEMBL5/CHEMBL566234.pdb
REMARK  6 active torsions:
REMARK  status: ('A' for Active; 'I' for Inactive)
REMARK    1  A    between atoms: C4_5  and  N1_6
REMARK    2  A    between atoms: N1_6  and  C5_7
REMARK    3  A    between atoms: C5_7  and  C6_8
REMARK    4  A    between atoms: C9_11  and  C10_12
REMARK    5  A    between atoms: C12_14  and  C13_15
REMARK    6  A    between atoms: C15_19  and  C16_20
REMARK                            x       y       z     vdW  Elec       q    Type
REMARK                         _______ _______ _______ _____ _____    ______ ____
ROOT
ATOM      1  C10 CHE B   02     20.564  69.972   7.529  0.00  0.00    +0.072 A 
ATOM      2  C11 CHE B   02     20.925  69.486   9.604  0.00  0.00    +0.037 A 
ATOM      3  C12 CHE B   02     22.516  70.615   8.194  0.00  0.00    -0.011 A 
ATOM      4  C21 CHE B   02     22.398  69.669  11.082  0.00  0.00    +0.028 A 
ATOM      5  C22 CHE B   02     21.820  69.781   9.909  0.00  0.00    +0.112 A 
ATOM      6  N5  CHE B   02     20.256  68.661  11.329  0.00  0.00    -0.255 NA
ENDROOT
BRANCH   1  10
ATOM      7  C6  CHE B   02     16.656  67.648   8.081  0.00  0.00    -0.064 A 
ATOM      8  C7  CHE B   02     16.342  68.089  10.113  0.00  0.00    +0.002 A 
ATOM      9  C8  CHE B   02     18.565  68.775   7.786  0.00  0.00    +0.010 A 
ATOM     10  C9  CHE B   02     19.100  69.187   8.007  0.00  0.00    +0.000 A 
ATOM     11  C23 CHE B   02     18.618  68.816   7.808  0.00  0.00    +0.010 A 
ATOM     12  C24 CHE B   02     17.214  68.077   8.310  0.00  0.00    +0.002 A 
BRANCH   7  13
ATOM     13  C5  CHE B   02     15.958  66.770   6.713  0.00  0.00    -0.046 C 
BRANCH  13  14
ATOM     14  N1  CHE B   02     14.369  65.480   6.004  0.00  0.00    +0.385 N 
ATOM     15  H8  CHE B   02     16.876  67.073   5.319  0.00  0.00    -0.085 HD
ATOM     16  H9  CHE B   02     16.796  67.295   6.455  0.00  0.00    -0.085 HD
BRANCH  14  21
ATOM     17  C1  CHE B   02     18.829  69.227   2.785  0.00  0.00    +0.026 C 
ATOM     18  C2  CHE B   02     14.233  65.477   4.139  0.00  0.00    +0.159 C 
ATOM     19  O1  CHE B   02     15.877  66.730   5.220  0.00  0.00    -0.381 OA
ATOM     20  C3  CHE B   02     14.327  65.480   5.425  0.00  0.00    +0.144 C 
ATOM     21  C4  CHE B   02     11.965  63.603   5.230  0.00  0.00    -0.045 C 
ATOM     22  C25 CHE B   02     11.867  63.601   3.883  0.00  0.00    -0.011 C 
ENDBRANCH  14  21
ENDBRANCH  13  14
ENDBRANCH   7  13
ENDBRANCH   1  10
BRANCH   3  23
ATOM     23  C13 CHE B   02     23.067  70.494   9.357  0.00  0.00    +0.029 A 
ATOM     24  C14 CHE B   02     23.903  69.978   4.449  0.00  0.00    +0.114 A 
ATOM     25  N2  CHE B   02     23.544  70.397  10.502  0.00  0.00    -0.284 N 
ATOM     26  N3  CHE B   02     24.505  70.046   9.722  0.00  0.00    -0.172 NA
ATOM     27  C15 CHE B   02     24.106  70.170   9.621  0.00  0.00    +0.118 A 
ATOM     28  H16 CHE B   02     24.951  69.651   4.715  0.00  0.00    +0.188 HD
BRANCH  27  29
ATOM     29  C16 CHE B   02     25.530  69.521   5.886  0.00  0.00    +0.091 A 
ATOM     30  C17 CHE B   02     26.776  69.878   6.078  0.00  0.00    +0.030 A 
ATOM     31  C18 CHE B   02     27.001  70.470   8.090  0.00  0.00    +0.004 A 
ATOM     32  C19 CHE B   02     25.520  71.103  11.816  0.00  0.00    +0.020 A 
ATOM     33  C20 CHE B   02     24.283  70.749  11.625  0.00  0.00    +0.111 A 
ATOM     34  N4  CHE B   02     23.890  70.373  10.576  0.00  0.00    -0.253 NA
ENDBRANCH  27  29
ENDBRANCH   3  23
TORSDOF 6
ENDMDL
MODEL 8
REMARK VINA RESULT:     -11.0      3.403      5.843
REMARK  Name = dock_mp/CHEMBL5/CHEMBL566234.pdb
REMARK  6 active torsions:
REMARK  status: ('A' for Active; 'I' for Inactive)
REMARK    1  A    between atoms: C4_5  and  N1_6
REMARK    2  A    between atoms: N1_6  and  C5_7
REMARK    3  A    between atoms: C5_7  and  C6_8
REMARK    4  A    between atoms: C9_11  and  C10_12
REMARK    5  A    between atoms: C12_14  and  C13_15
REMARK    6  A    between atoms: C15_19  and  C16_20
REMARK                            x       y       z     vdW  Elec       q    Type
REMARK                         _______ _______ _______ _____ _____    ______ ____
ROOT
ATOM      1  C10 CHE B   02     20.673  68.077   7.802  0.00  0.00    +0.072 A 
ATOM      2  C11 CHE B   02     18.757  67.951   8.795  0.00  0.00    +0.037 A 
ATOM      3  C12 CHE B   02     19.084  67.521   6.449  0.00  0.00    -0.011 A 
ATOM      4  C21 CHE B   02     16.747  67.519   8.396  0.00  0.00    +0.028 A 
ATOM      5  C22 CHE B   02     18.029  67.696   8.175  0.00  0.00    +0.112 A 
ATOM      6  N5  CHE B   02     17.680  68.118  10.502  0.00  0.00    -0.255 NA
ENDROOT
BRANCH   1  10
ATOM      7  C6  CHE B   02     22.339  69.396  11.859  0.00  0.00    -0.064 A 
ATOM      8  C7  CHE B   02     20.687  68.852  13.040  0.00  0.00    +0.002 A 
ATOM      9  C8  CHE B   02     21.548  68.760   9.867  0.00  0.00    +0.010 A 
ATOM     10  C9  CHE B   02     21.054  68.482   9.439  0.00  0.00    +0.000 A 
ATOM     11  C23 CHE B   02     21.499  68.732   9.824  0.00  0.00    +0.010 A 
ATOM     12  C24 CHE B   02     21.825  69.107  11.413  0.00  0.00    +0.002 A 
BRANCH   7  13
ATOM     13  C5  CHE B   02     23.955  70.111  11.952  0.00  0.00    -0.046 C 
BRANCH  13  14
ATOM     14  N1  CHE B   02     25.436  71.095  13.189  0.00  0.00    +0.385 N 
ATOM     15  H8  CHE B   02     24.847  69.575  10.613  0.00  0.00    -0.085 HD
ATOM     16  H9  CHE B   02     23.787  69.603  11.082  0.00  0.00    -0.085 HD
BRANCH  14  21
ATOM     17  C1  CHE B   02     25.874  68.146   7.238  0.00  0.00    +0.026 C 
ATOM     18  C2  CHE B   02     27.134  71.102  12.405  0.00  0.00    +0.159 C 
ATOM     19  O1  CHE B   02     25.319  70.111  11.327  0.00  0.00    -0.381 OA
ATOM     20  C3  CHE B   02     25.963  71.097  12.945  0.00  0.00    +0.144 C 
ATOM     21  C4  CHE B   02     27.387  72.578  15.162  0.00  0.00    -0.045 C 
ATOM     22  C25 CHE B   02     28.613  72.584  14.596  0.00  0.00    -0.011 C 
ENDBRANCH  14  21
ENDBRANCH  13  14
ENDBRANCH   7  13
ENDBRANCH   1  10
BRANCH   3  23
ATOM     23  C13 CHE B   02     17.824  67.352   6.689  0.00  0.00    +0.029 A 
ATOM     24  C14 CHE B   02     21.055  69.407   3.465  0.00  0.00    +0.114 A 
ATOM     25  N2  CHE B   02     16.628  67.158   6.970  0.00  0.00    -0.284 N 
ATOM     26  N3  CHE B   02     16.596  67.837   5.877  0.00  0.00    -0.172 NA
ATOM     27  C15 CHE B   02     16.937  67.702   6.102  0.00  0.00    +0.118 A 
ATOM     28  H16 CHE B   02     20.160  69.761   2.874  0.00  0.00    +0.188 HD
BRANCH  27  29
ATOM     29  C16 CHE B   02     18.876  69.601   3.097  0.00  0.00    +0.091 A 
ATOM     30  C17 CHE B   02     18.086  69.273   2.105  0.00  0.00    +0.030 A 
ATOM     31  C18 CHE B   02     16.522  68.077   2.862  0.00  0.00    +0.004 A 
ATOM     32  C19 CHE B   02     14.619  66.194   5.912  0.00  0.00    +0.020 A 
ATOM     33  C20 CHE B   02     15.403  66.519   6.897  0.00  0.00    +0.111 A 
ATOM     34  N4  CHE B   02     16.363  67.191   6.742  0.00  0.00    -0.253 NA
ENDBRANCH  27  29
ENDBRANCH   3  23
TORSDOF 6
ENDMDL
MODEL 9
REMARK VINA RESULT:     -11.0      1.961      3.071
REMARK  Name = dock_mp/CHEMBL5/CHEMBL566234.pdb
REMARK  6 active torsions:
REMARK  status: ('A' for Active; 'I' for Inactive)
REMARK    1  A    between atoms: C4_5  and  N1_6
REMARK    2  A    between atoms: N1_6  and  C5_7
REMARK    3  A    between atoms: C5_7  and  C6_8
REMARK    4  A    between atoms: C9_11  and  C10_12
REMARK    5  A    between atoms: C12_14  and  C13_15
REMARK    6  A    between atoms: C15_19  and  C16_20
REMARK                            x       y       z     vdW  Elec       q    Type
REMARK                         _______ _______ _______ _____ _____    ______ ____
ROOT
ATOM      1  C10 CHE B   02     20.237  67.527   8.604  0.00  0.00    +0.072 A 
ATOM      2  C11 CHE B   02     20.744  69.180   7.306  0.00  0.00    +0.037 A 
ATOM      3  C12 CHE B   02     19.315  67.354   6.659  0.00  0.00    -0.011 A 
ATOM      4  C21 CHE B   02     20.387  69.892   5.369  0.00  0.00    +0.028 A 
ATOM      5  C22 CHE B   02     20.321  69.101   6.414  0.00  0.00    +0.112 A 
ATOM      6  N5  CHE B   02     21.738  70.924   7.035  0.00  0.00    -0.255 NA
ENDROOT
BRANCH   1  10
ATOM      7  C6  CHE B   02     22.841  69.584  11.760  0.00  0.00    -0.064 A 
ATOM      8  C7  CHE B   02     23.458  71.227  10.600  0.00  0.00    +0.002 A 
ATOM      9  C8  CHE B   02     21.564  68.561  10.236  0.00  0.00    +0.010 A 
ATOM     10  C9  CHE B   02     21.268  68.499   9.594  0.00  0.00    +0.000 A 
ATOM     11  C23 CHE B   02     21.535  68.555  10.173  0.00  0.00    +0.010 A 
ATOM     12  C24 CHE B   02     22.533  69.520  11.091  0.00  0.00    +0.002 A 
BRANCH   7  13
ATOM     13  C5  CHE B   02     23.006  68.862  13.367  0.00  0.00    -0.046 C 
BRANCH  13  14
ATOM     14  N1  CHE B   02     22.088  67.667  14.923  0.00  0.00    +0.385 N 
ATOM     15  H8  CHE B   02     24.261  69.669  14.173  0.00  0.00    -0.085 HD
ATOM     16  H9  CHE B   02     23.743  69.533  13.144  0.00  0.00    -0.085 HD
BRANCH  14  21
ATOM     17  C1  CHE B   02     26.995  72.160  15.090  0.00  0.00    +0.026 C 
ATOM     18  C2  CHE B   02     22.828  67.995  16.608  0.00  0.00    +0.159 C 
ATOM     19  O1  CHE B   02     23.609  69.114  14.717  0.00  0.00    -0.381 OA
ATOM     20  C3  CHE B   02     22.318  67.768  15.445  0.00  0.00    +0.144 C 
ATOM     21  C4  CHE B   02     20.581  65.839  16.994  0.00  0.00    -0.045 C 
ATOM     22  C25 CHE B   02     21.115  66.076  18.211  0.00  0.00    -0.011 C 
ENDBRANCH  14  21
ENDBRANCH  13  14
ENDBRANCH   7  13
ENDBRANCH   1  10
BRANCH   3  23
ATOM     23  C13 CHE B   02     19.393  68.148   5.640  0.00  0.00    +0.029 A 
ATOM     24  C14 CHE B   02     16.164  65.852   8.700  0.00  0.00    +0.114 A 
ATOM     25  N2  CHE B   02     19.530  68.907   4.664  0.00  0.00    -0.284 N 
ATOM     26  N3  CHE B   02     18.256  68.817   4.827  0.00  0.00    -0.172 NA
ATOM     27  C15 CHE B   02     18.572  68.632   5.052  0.00  0.00    +0.118 A 
ATOM     28  H16 CHE B   02     15.335  66.341   8.106  0.00  0.00    +0.188 HD
BRANCH  27  29
ATOM     29  C16 CHE B   02     15.391  67.147   7.072  0.00  0.00    +0.091 A 
ATOM     30  C17 CHE B   02     14.562  67.004   6.069  0.00  0.00    +0.030 A 
ATOM     31  C18 CHE B   02     15.528  67.638   4.304  0.00  0.00    +0.004 A 
ATOM     32  C19 CHE B   02     18.746  69.129   2.331  0.00  0.00    +0.020 A 
ATOM     33  C20 CHE B   02     19.569  69.272   3.326  0.00  0.00    +0.111 A 
ATOM     34  N4  CHE B   02     19.273  68.987   4.434  0.00  0.00    -0.253 NA
ENDBRANCH  27  29
ENDBRANCH   3  23
TORSDOF 6
ENDMDL
MODEL 10
REMARK VINA RESULT:     -10.9      3.071      5.131
REMARK  Name = dock_mp/CHEMBL5/CHEMBL566234.pdb
REMARK  6 active torsions:
REMARK  status: ('A' for Active; 'I' for Inactive)
REMARK    1  A    between atoms: C4_5  and  N1_6
REMARK    2  A    between atoms: N1_6  and  C5_7
REMARK    3  A    between atoms: C5_7  and  C6_8
REMARK    4  A    between atoms: C9_11  and  C10_12
REMARK    5  A    between atoms: C12_14  and  C13_15
REMARK    6  A    between atoms: C15_19  and  C16_20
REMARK                            x       y       z     vdW  Elec       q    Type
REMARK                         _______ _______ _______ _____ _____    ______ ____
ROOT
ATOM      1  C10 CHE B   02     19.739  68.880   7.435  0.00  0.00    +0.072 A 
ATOM      2  C11 CHE B   02     20.338  69.152   5.376  0.00  0.00    +0.037 A 
ATOM      3  C12 CHE B   02     18.071  68.734   6.070  0.00  0.00    -0.011 A 
ATOM      4  C21 CHE B   02     19.533  69.192   3.443  0.00  0.00    +0.028 A 
ATOM      5  C22 CHE B   02     19.573  69.085   4.750  0.00  0.00    +0.112 A 
ATOM      6  N5  CHE B   02     21.817  69.502   4.037  0.00  0.00    -0.255 NA
ENDROOT
BRANCH   1  10
ATOM      7  C6  CHE B   02     24.106  69.809   8.452  0.00  0.00    -0.064 A 
ATOM      8  C7  CHE B   02     24.959  69.230   6.620  0.00  0.00    +0.002 A 
ATOM      9  C8  CHE B   02     21.967  69.363   7.979  0.00  0.00    +0.010 A 
ATOM     10  C9  CHE B   02     21.443  69.139   7.555  0.00  0.00    +0.000 A 
ATOM     11  C23 CHE B   02     21.915  69.341   7.938  0.00  0.00    +0.010 A 
ATOM     12  C24 CHE B   02     23.561  69.575   8.010  0.00  0.00    +0.002 A 
BRANCH   7  13
ATOM     13  C5  CHE B   02     24.516  70.458  10.047  0.00  0.00    -0.046 C 
BRANCH  13  14
ATOM     14  N1  CHE B   02     26.079  71.129  11.386  0.00  0.00    +0.385 N 
ATOM     15  H8  CHE B   02     23.263  70.000  11.095  0.00  0.00    -0.085 HD
ATOM     16  H9  CHE B   02     23.569  70.079   9.979  0.00  0.00    -0.085 HD
BRANCH  14  21
ATOM     17  C1  CHE B   02     19.931  68.852  12.530  0.00  0.00    +0.026 C 
ATOM     18  C2  CHE B   02     25.570  71.042  13.184  0.00  0.00    +0.159 C 
ATOM     19  O1  CHE B   02     24.109  70.384  11.489  0.00  0.00    -0.381 OA
ATOM     20  C3  CHE B   02     25.921  71.102  11.944  0.00  0.00    +0.144 C 
ATOM     21  C4  CHE B   02     28.502  72.156  13.112  0.00  0.00    -0.045 C 
ATOM     22  C25 CHE B   02     28.135  72.093  14.409  0.00  0.00    -0.011 C 
ENDBRANCH  14  21
ENDBRANCH  13  14
ENDBRANCH   7  13
ENDBRANCH   1  10
BRANCH   3  23
ATOM     23  C13 CHE B   02     18.054  68.842   4.781  0.00  0.00    +0.029 A 
ATOM     24  C14 CHE B   02     16.250  66.165   8.607  0.00  0.00    +0.114 A 
ATOM     25  N2  CHE B   02     18.076  68.995   3.547  0.00  0.00    -0.284 N 
ATOM     26  N3  CHE B   02     17.297  67.987   3.733  0.00  0.00    -0.172 NA
ATOM     27  C15 CHE B   02     17.507  68.225   4.024  0.00  0.00    +0.118 A 
ATOM     28  H16 CHE B   02     15.698  65.542   7.842  0.00  0.00    +0.188 HD
BRANCH  27  29
ATOM     29  C16 CHE B   02     15.666  65.634   6.533  0.00  0.00    +0.091 A 
ATOM     30  C17 CHE B   02     14.551  65.462   5.867  0.00  0.00    +0.030 A 
ATOM     31  C18 CHE B   02     14.633  66.629   4.112  0.00  0.00    +0.004 A 
ATOM     32  C19 CHE B   02     16.525  69.227   1.633  0.00  0.00    +0.020 A 
ATOM     33  C20 CHE B   02     17.631  69.397   2.294  0.00  0.00    +0.111 A 
ATOM     34  N4  CHE B   02     17.841  68.853   3.322  0.00  0.00    -0.253 NA
ENDBRANCH  27  29
ENDBRANCH   3  23
TORSDOF 6
ENDMDL
