MODEL 1
REMARK VINA RESULT:     -10.5      0.000      0.000
REMARK  Name = dock_mp/CHEMBL5/CHEMBL560815.pdb
REMARK  4 active torsions:
REMARK  status: ('A' for Active; 'I' for Inactive)
REMARK    1  A    between atoms: C1_1  and  C2_2
REMARK    2  A    between atoms: C6_6  and  C7_7
REMARK    3  A    between atoms: C9_9  and  N1_10
REMARK    4  A    between atoms: N1_10  and  C10_11
REMARK                            x       y       z     vdW  Elec       q    Type
REMARK                         _______ _______ _______ _____ _____    ______ ____
ROOT
ATOM      1  C7  CHE B   08     18.297  68.363   8.698  0.00  0.00    +0.092 A 
ATOM      2  C8  CHE B   08     18.818  68.554   7.270  0.00  0.00    +0.053 A 
ATOM      3  C9  CHE B   08     17.591  68.276   2.275  0.00  0.00    +0.043 A 
ATOM      4  C15 CHE B   08     18.524  68.529   4.026  0.00  0.00    +0.022 A 
ATOM      5  C16 CHE B   08     19.953  68.965   4.364  0.00  0.00    +0.012 A 
ATOM      6  C17 CHE B   08     18.146  68.477   0.829  0.00  0.00    +0.001 A 
ATOM      7  C18 CHE B   08     17.625  68.286   2.256  0.00  0.00    +0.002 A 
ATOM      8  C19 CHE B   08     19.356  68.704   8.106  0.00  0.00    +0.028 A 
ATOM      9  C20 CHE B   08     17.994  68.336   5.458  0.00  0.00    +0.073 A 
ATOM     10  N3  CHE B   08     17.456  68.140   6.895  0.00  0.00    -0.245 NA
ENDROOT
BRANCH   1  16
ATOM     11  C1  CHE B   08     15.473  65.900   7.291  0.00  0.00    +0.065 C 
ATOM     12  C2  CHE B   08     14.847  65.326   5.477  0.00  0.00    +0.039 A 
ATOM     13  C3  CHE B   08     15.799  66.241  10.437  0.00  0.00    +0.023 A 
ATOM     14  C4  CHE B   08     13.406  64.059   4.231  0.00  0.00    +0.004 A 
ATOM     15  C5  CHE B   08     14.587  65.084   4.533  0.00  0.00    +0.030 A 
ATOM     16  C6  CHE B   08     18.129  68.263  11.064  0.00  0.00    +0.089 A 
ATOM     17  N4  CHE B   08     15.648  66.006   4.919  0.00  0.00    -0.250 NA
ENDBRANCH   1  16
BRANCH   3  18
ATOM     18  N1  CHE B   08     21.314  69.333   7.012  0.00  0.00    -0.314 N 
ATOM     19  H8  CHE B   08     16.916  70.192   2.913  0.00  0.00    +0.152 HD
BRANCH  18  20
ATOM     20  C10 CHE B   08     16.515  69.394   1.916  0.00  0.00    +0.034 A 
ATOM     21  C11 CHE B   08     18.190  69.943   3.085  0.00  0.00    +0.043 A 
ATOM     22  C12 CHE B   08     20.984  70.004   5.949  0.00  0.00    +0.112 A 
ATOM     23  N2  CHE B   08     22.098  69.507   7.647  0.00  0.00    -0.263 NA
ATOM     24  C13 CHE B   08     16.295  68.983   2.124  0.00  0.00    +0.112 A 
ATOM     25  C14 CHE B   08     16.256  68.911   2.160  0.00  0.00    +0.043 A 
ENDBRANCH  18  20
ENDBRANCH   3  18
TORSDOF 3
ENDMDL
MODEL 2
REMARK VINA RESULT:     -10.0      2.084      5.154
REMARK  Name = dock_mp/CHEMBL5/CHEMBL560815.pdb
REMARK  4 active torsions:
REMARK  status: ('A' for Active; 'I' for Inactive)
REMARK    1  A    between atoms: C1_1  and  C2_2
REMARK    2  A    between atoms: C6_6  and  C7_7
REMARK    3  A    between atoms: C9_9  and  N1_10
REMARK    4  A    between atoms: N1_10  and  C10_11
REMARK                            x       y       z     vdW  Elec       q    Type
REMARK                         _______ _______ _______ _____ _____    ______ ____
ROOT
ATOM      1  C7  CHE B   08     19.422  68.853   8.697  0.00  0.00    +0.092 A 
ATOM      2  C8  CHE B   08     18.412  68.543   7.589  0.00  0.00    +0.053 A 
ATOM      3  C9  CHE B   08     17.213  69.354   2.645  0.00  0.00    +0.043 A 
ATOM      4  C15 CHE B   08     17.248  68.757   4.554  0.00  0.00    +0.022 A 
ATOM      5  C16 CHE B   08     16.297  67.867   5.359  0.00  0.00    +0.012 A 
ATOM      6  C17 CHE B   08     16.168  69.023   1.532  0.00  0.00    +0.001 A 
ATOM      7  C18 CHE B   08     17.179  69.333   2.640  0.00  0.00    +0.002 A 
ATOM      8  C19 CHE B   08     18.357  68.201   8.533  0.00  0.00    +0.028 A 
ATOM      9  C20 CHE B   08     18.267  69.072   5.663  0.00  0.00    +0.073 A 
ATOM     10  N3  CHE B   08     19.295  69.393   6.774  0.00  0.00    -0.245 NA
ENDROOT
BRANCH   1  16
ATOM     11  C1  CHE B   08     22.201  69.508   5.892  0.00  0.00    +0.065 C 
ATOM     12  C2  CHE B   08     22.219  69.627   3.893  0.00  0.00    +0.039 A 
ATOM     13  C3  CHE B   08     23.069  69.484   8.953  0.00  0.00    +0.023 A 
ATOM     14  C4  CHE B   08     23.426  69.952   1.977  0.00  0.00    +0.004 A 
ATOM     15  C5  CHE B   08     22.149  69.673   2.888  0.00  0.00    +0.030 A 
ATOM     16  C6  CHE B   08     20.565  68.935  10.777  0.00  0.00    +0.089 A 
ATOM     17  N4  CHE B   08     21.049  69.425   3.811  0.00  0.00    -0.250 NA
ENDBRANCH   1  16
BRANCH   3  18
ATOM     18  N1  CHE B   08     16.387  66.995   8.228  0.00  0.00    -0.314 N 
ATOM     19  H8  CHE B   08     18.545  67.692   2.595  0.00  0.00    +0.152 HD
BRANCH  18  20
ATOM     20  C10 CHE B   08     18.250  68.625   1.680  0.00  0.00    +0.034 A 
ATOM     21  C11 CHE B   08     17.502  67.528   3.327  0.00  0.00    +0.043 A 
ATOM     22  C12 CHE B   08     16.400  66.490   7.031  0.00  0.00    +0.112 A 
ATOM     23  N2  CHE B   08     16.051  66.559   9.091  0.00  0.00    -0.263 NA
ATOM     24  C13 CHE B   08     18.407  69.082   1.843  0.00  0.00    +0.112 A 
ATOM     25  C14 CHE B   08     18.435  69.163   1.871  0.00  0.00    +0.043 A 
ENDBRANCH  18  20
ENDBRANCH   3  18
TORSDOF 3
ENDMDL
MODEL 3
REMARK VINA RESULT:      -9.9      1.566      2.101
REMARK  Name = dock_mp/CHEMBL5/CHEMBL560815.pdb
REMARK  4 active torsions:
REMARK  status: ('A' for Active; 'I' for Inactive)
REMARK    1  A    between atoms: C1_1  and  C2_2
REMARK    2  A    between atoms: C6_6  and  C7_7
REMARK    3  A    between atoms: C9_9  and  N1_10
REMARK    4  A    between atoms: N1_10  and  C10_11
REMARK                            x       y       z     vdW  Elec       q    Type
REMARK                         _______ _______ _______ _____ _____    ______ ____
ROOT
ATOM      1  C7  CHE B   08     19.587  68.934  10.148  0.00  0.00    +0.092 A 
ATOM      2  C8  CHE B   08     19.997  69.251   8.706  0.00  0.00    +0.053 A 
ATOM      3  C9  CHE B   08     18.421  69.298   3.802  0.00  0.00    +0.043 A 
ATOM      4  C15 CHE B   08     19.469  69.456   5.498  0.00  0.00    +0.022 A 
ATOM      5  C16 CHE B   08     20.903  69.921   5.768  0.00  0.00    +0.012 A 
ATOM      6  C17 CHE B   08     18.862  69.628   2.341  0.00  0.00    +0.001 A 
ATOM      7  C18 CHE B   08     18.453  69.312   3.782  0.00  0.00    +0.002 A 
ATOM      8  C19 CHE B   08     20.589  69.358   9.511  0.00  0.00    +0.028 A 
ATOM      9  C20 CHE B   08     19.052  69.136   6.945  0.00  0.00    +0.073 A 
ATOM     10  N3  CHE B   08     18.626  68.813   8.396  0.00  0.00    -0.245 NA
ENDROOT
BRANCH   1  16
ATOM     11  C1  CHE B   08     16.548  66.715   8.785  0.00  0.00    +0.065 C 
ATOM     12  C2  CHE B   08     15.759  66.315   6.988  0.00  0.00    +0.039 A 
ATOM     13  C3  CHE B   08     17.129  66.788  11.912  0.00  0.00    +0.023 A 
ATOM     14  C4  CHE B   08     14.167  65.215   5.767  0.00  0.00    +0.004 A 
ATOM     15  C5  CHE B   08     15.417  66.162   6.052  0.00  0.00    +0.030 A 
ATOM     16  C6  CHE B   08     19.595  68.651  12.505  0.00  0.00    +0.089 A 
ATOM     17  N4  CHE B   08     16.547  67.004   6.422  0.00  0.00    -0.250 NA
ENDBRANCH   1  16
BRANCH   3  18
ATOM     18  N1  CHE B   08     22.440  70.143   8.335  0.00  0.00    -0.314 N 
ATOM     19  H8  CHE B   08     18.910  67.286   4.303  0.00  0.00    +0.152 HD
BRANCH  18  20
ATOM     20  C10 CHE B   08     18.081  67.799   3.385  0.00  0.00    +0.034 A 
ATOM     21  C11 CHE B   08     19.849  68.096   4.508  0.00  0.00    +0.043 A 
ATOM     22  C12 CHE B   08     22.428  69.373   7.288  0.00  0.00    +0.112 A 
ATOM     23  N2  CHE B   08     23.232  70.358   8.948  0.00  0.00    -0.263 NA
ATOM     24  C13 CHE B   08     17.703  68.068   3.595  0.00  0.00    +0.112 A 
ATOM     25  C14 CHE B   08     17.636  68.116   3.632  0.00  0.00    +0.043 A 
ENDBRANCH  18  20
ENDBRANCH   3  18
TORSDOF 3
ENDMDL
MODEL 4
REMARK VINA RESULT:      -9.7      2.663      6.829
REMARK  Name = dock_mp/CHEMBL5/CHEMBL560815.pdb
REMARK  4 active torsions:
REMARK  status: ('A' for Active; 'I' for Inactive)
REMARK    1  A    between atoms: C1_1  and  C2_2
REMARK    2  A    between atoms: C6_6  and  C7_7
REMARK    3  A    between atoms: C9_9  and  N1_10
REMARK    4  A    between atoms: N1_10  and  C10_11
REMARK                            x       y       z     vdW  Elec       q    Type
REMARK                         _______ _______ _______ _____ _____    ______ ____
ROOT
ATOM      1  C7  CHE B   08     17.704  68.184   5.507  0.00  0.00    +0.092 A 
ATOM      2  C8  CHE B   08     18.969  68.892   6.000  0.00  0.00    +0.053 A 
ATOM      3  C9  CHE B   08     21.447  70.665  10.154  0.00  0.00    +0.043 A 
ATOM      4  C15 CHE B   08     20.900  70.160   8.298  0.00  0.00    +0.022 A 
ATOM      5  C16 CHE B   08     21.592  70.352   6.945  0.00  0.00    +0.012 A 
ATOM      6  C17 CHE B   08     22.746  71.389  10.632  0.00  0.00    +0.001 A 
ATOM      7  C18 CHE B   08     21.481  70.680  10.139  0.00  0.00    +0.002 A 
ATOM      8  C19 CHE B   08     18.767  68.673   5.040  0.00  0.00    +0.028 A 
ATOM      9  C20 CHE B   08     19.626  69.448   7.808  0.00  0.00    +0.073 A 
ATOM     10  N3  CHE B   08     18.344  68.731   7.323  0.00  0.00    -0.245 NA
ENDROOT
BRANCH   1  16
ATOM     11  C1  CHE B   08     16.845  67.083   9.258  0.00  0.00    +0.065 C 
ATOM     12  C2  CHE B   08     17.635  67.420  11.067  0.00  0.00    +0.039 A 
ATOM     13  C3  CHE B   08     14.994  66.056   6.883  0.00  0.00    +0.023 A 
ATOM     14  C4  CHE B   08     17.542  67.062  13.325  0.00  0.00    +0.004 A 
ATOM     15  C5  CHE B   08     18.089  67.634  11.942  0.00  0.00    +0.030 A 
ATOM     16  C6  CHE B   08     16.051  67.171   4.136  0.00  0.00    +0.089 A 
ATOM     17  N4  CHE B   08     18.505  68.102  10.626  0.00  0.00    -0.250 NA
ENDBRANCH   1  16
BRANCH   3  18
ATOM     18  N1  CHE B   08     20.733  69.578   4.177  0.00  0.00    -0.314 N 
ATOM     19  H8  CHE B   08     21.953  68.598  10.045  0.00  0.00    +0.152 HD
BRANCH  18  20
ATOM     20  C10 CHE B   08     21.908  69.450  11.077  0.00  0.00    +0.034 A 
ATOM     21  C11 CHE B   08     22.245  69.314   8.993  0.00  0.00    +0.043 A 
ATOM     22  C12 CHE B   08     21.687  69.358   5.031  0.00  0.00    +0.112 A 
ATOM     23  N2  CHE B   08     20.782  69.540   3.155  0.00  0.00    -0.263 NA
ATOM     24  C13 CHE B   08     21.420  69.576  11.158  0.00  0.00    +0.112 A 
ATOM     25  C14 CHE B   08     21.334  69.598  11.173  0.00  0.00    +0.043 A 
ENDBRANCH  18  20
ENDBRANCH   3  18
TORSDOF 3
ENDMDL
MODEL 5
REMARK VINA RESULT:      -9.5      1.770      5.271
REMARK  Name = dock_mp/CHEMBL5/CHEMBL560815.pdb
REMARK  4 active torsions:
REMARK  status: ('A' for Active; 'I' for Inactive)
REMARK    1  A    between atoms: C1_1  and  C2_2
REMARK    2  A    between atoms: C6_6  and  C7_7
REMARK    3  A    between atoms: C9_9  and  N1_10
REMARK    4  A    between atoms: N1_10  and  C10_11
REMARK                            x       y       z     vdW  Elec       q    Type
REMARK                         _______ _______ _______ _____ _____    ______ ____
ROOT
ATOM      1  C7  CHE B   08     19.375  68.688   8.596  0.00  0.00    +0.092 A 
ATOM      2  C8  CHE B   08     17.981  68.057   8.530  0.00  0.00    +0.053 A 
ATOM      3  C9  CHE B   08     14.413  66.063   5.395  0.00  0.00    +0.043 A 
ATOM      4  C15 CHE B   08     15.448  66.727   6.973  0.00  0.00    +0.022 A 
ATOM      5  C16 CHE B   08     15.111  66.768   8.466  0.00  0.00    +0.012 A 
ATOM      6  C17 CHE B   08     12.989  65.422   5.354  0.00  0.00    +0.001 A 
ATOM      7  C18 CHE B   08     14.383  66.053   5.419  0.00  0.00    +0.002 A 
ATOM      8  C19 CHE B   08     18.435  68.368   9.371  0.00  0.00    +0.028 A 
ATOM      9  C20 CHE B   08     16.849  67.360   7.032  0.00  0.00    +0.073 A 
ATOM     10  N3  CHE B   08     18.258  67.996   7.086  0.00  0.00    -0.245 NA
ENDROOT
BRANCH   1  16
ATOM     11  C1  CHE B   08     19.324  69.244   4.632  0.00  0.00    +0.065 C 
ATOM     12  C2  CHE B   08     18.077  68.777   3.136  0.00  0.00    +0.039 A 
ATOM     13  C3  CHE B   08     21.784  70.353   6.318  0.00  0.00    +0.023 A 
ATOM     14  C4  CHE B   08     17.617  68.853   0.897  0.00  0.00    +0.004 A 
ATOM     15  C5  CHE B   08     17.402  68.507   2.437  0.00  0.00    +0.030 A 
ATOM     16  C6  CHE B   08     21.387  69.685   9.367  0.00  0.00    +0.089 A 
ATOM     17  N4  CHE B   08     17.305  68.243   3.867  0.00  0.00    -0.250 NA
ENDBRANCH   1  16
BRANCH   3  18
ATOM     18  N1  CHE B   08     16.696  67.775  10.805  0.00  0.00    -0.314 N 
ATOM     19  H8  CHE B   08     16.009  64.673   5.629  0.00  0.00    +0.152 HD
BRANCH  18  20
ATOM     20  C10 CHE B   08     15.110  64.839   4.651  0.00  0.00    +0.034 A 
ATOM     21  C11 CHE B   08     15.395  65.076   6.734  0.00  0.00    +0.043 A 
ATOM     22  C12 CHE B   08     16.273  66.653  10.305  0.00  0.00    +0.112 A 
ATOM     23  N2  CHE B   08     16.869  68.001  11.789  0.00  0.00    -0.263 NA
ATOM     24  C13 CHE B   08     15.232  65.275   4.416  0.00  0.00    +0.112 A 
ATOM     25  C14 CHE B   08     15.254  65.352   4.375  0.00  0.00    +0.043 A 
ENDBRANCH  18  20
ENDBRANCH   3  18
TORSDOF 3
ENDMDL
MODEL 6
REMARK VINA RESULT:      -8.4      4.374      7.009
REMARK  Name = dock_mp/CHEMBL5/CHEMBL560815.pdb
REMARK  4 active torsions:
REMARK  status: ('A' for Active; 'I' for Inactive)
REMARK    1  A    between atoms: C1_1  and  C2_2
REMARK    2  A    between atoms: C6_6  and  C7_7
REMARK    3  A    between atoms: C9_9  and  N1_10
REMARK    4  A    between atoms: N1_10  and  C10_11
REMARK                            x       y       z     vdW  Elec       q    Type
REMARK                         _______ _______ _______ _____ _____    ______ ____
ROOT
ATOM      1  C7  CHE B   08     22.583  68.514  10.743  0.00  0.00    +0.092 A 
ATOM      2  C8  CHE B   08     21.345  68.650   9.852  0.00  0.00    +0.053 A 
ATOM      3  C9  CHE B   08     16.264  67.851   9.566  0.00  0.00    +0.043 A 
ATOM      4  C15 CHE B   08     18.168  68.342   9.200  0.00  0.00    +0.022 A 
ATOM      5  C16 CHE B   08     18.841  68.960   7.971  0.00  0.00    +0.012 A 
ATOM      6  C17 CHE B   08     15.015  68.000   8.639  0.00  0.00    +0.001 A 
ATOM      7  C18 CHE B   08     16.254  67.864   9.530  0.00  0.00    +0.002 A 
ATOM      8  C19 CHE B   08     22.276  68.924   9.592  0.00  0.00    +0.028 A 
ATOM      9  C20 CHE B   08     19.409  68.202  10.100  0.00  0.00    +0.073 A 
ATOM     10  N3  CHE B   08     20.652  68.059  11.009  0.00  0.00    -0.245 NA
ENDROOT
BRANCH   1  16
ATOM     11  C1  CHE B   08     20.275  67.524  13.860  0.00  0.00    +0.065 C 
ATOM     12  C2  CHE B   08     18.316  67.229  14.155  0.00  0.00    +0.039 A 
ATOM     13  C3  CHE B   08     23.417  67.789  14.285  0.00  0.00    +0.023 A 
ATOM     14  C4  CHE B   08     16.630  66.697  15.606  0.00  0.00    +0.004 A 
ATOM     15  C5  CHE B   08     17.319  67.097  14.227  0.00  0.00    +0.030 A 
ATOM     16  C6  CHE B   08     24.807  68.579  11.574  0.00  0.00    +0.089 A 
ATOM     17  N4  CHE B   08     18.049  67.461  13.019  0.00  0.00    -0.250 NA
ENDBRANCH   1  16
BRANCH   3  18
ATOM     18  N1  CHE B   08     21.708  69.682   7.463  0.00  0.00    -0.314 N 
ATOM     19  H8  CHE B   08     17.231  65.982   9.237  0.00  0.00    +0.152 HD
BRANCH  18  20
ATOM     20  C10 CHE B   08     16.009  66.283   9.694  0.00  0.00    +0.034 A 
ATOM     21  C11 CHE B   08     17.540  66.985   8.413  0.00  0.00    +0.043 A 
ATOM     22  C12 CHE B   08     20.780  68.882   7.030  0.00  0.00    +0.112 A 
ATOM     23  N2  CHE B   08     22.491  70.080   6.937  0.00  0.00    -0.263 NA
ATOM     24  C13 CHE B   08     16.080  66.478  10.160  0.00  0.00    +0.112 A 
ATOM     25  C14 CHE B   08     16.093  66.513  10.243  0.00  0.00    +0.043 A 
ENDBRANCH  18  20
ENDBRANCH   3  18
TORSDOF 3
ENDMDL
MODEL 7
REMARK VINA RESULT:      -8.4      5.453      8.360
REMARK  Name = dock_mp/CHEMBL5/CHEMBL560815.pdb
REMARK  4 active torsions:
REMARK  status: ('A' for Active; 'I' for Inactive)
REMARK    1  A    between atoms: C1_1  and  C2_2
REMARK    2  A    between atoms: C6_6  and  C7_7
REMARK    3  A    between atoms: C9_9  and  N1_10
REMARK    4  A    between atoms: N1_10  and  C10_11
REMARK                            x       y       z     vdW  Elec       q    Type
REMARK                         _______ _______ _______ _____ _____    ______ ____
ROOT
ATOM      1  C7  CHE B   08     20.292  67.264  15.547  0.00  0.00    +0.092 A 
ATOM      2  C8  CHE B   08     21.182  67.309  14.301  0.00  0.00    +0.053 A 
ATOM      3  C9  CHE B   08     22.444  70.065  10.135  0.00  0.00    +0.043 A 
ATOM      4  C15 CHE B   08     22.306  68.671  11.563  0.00  0.00    +0.022 A 
ATOM      5  C16 CHE B   08     23.037  67.339  11.759  0.00  0.00    +0.012 A 
ATOM      6  C17 CHE B   08     23.361  70.088   8.871  0.00  0.00    +0.001 A 
ATOM      7  C18 CHE B   08     22.472  70.043  10.117  0.00  0.00    +0.002 A 
ATOM      8  C19 CHE B   08     21.172  66.565  14.976  0.00  0.00    +0.028 A 
ATOM      9  C20 CHE B   08     21.410  68.631  12.814  0.00  0.00    +0.073 A 
ATOM     10  N3  CHE B   08     20.507  68.597  14.069  0.00  0.00    -0.245 NA
ENDROOT
BRANCH   1  16
ATOM     11  C1  CHE B   08     17.361  67.605  12.843  0.00  0.00    +0.065 C 
ATOM     12  C2  CHE B   08     17.249  68.103  10.906  0.00  0.00    +0.039 A 
ATOM     13  C3  CHE B   08     16.631  66.728  15.813  0.00  0.00    +0.023 A 
ATOM     14  C4  CHE B   08     15.942  68.425   9.056  0.00  0.00    +0.004 A 
ATOM     15  C5  CHE B   08     17.271  68.363   9.932  0.00  0.00    +0.030 A 
ATOM     16  C6  CHE B   08     19.240  66.596  17.568  0.00  0.00    +0.089 A 
ATOM     17  N4  CHE B   08     18.423  68.274  10.821  0.00  0.00    -0.250 NA
ENDBRANCH   1  16
BRANCH   3  18
ATOM     18  N1  CHE B   08     22.799  65.274  13.921  0.00  0.00    -0.314 N 
ATOM     19  H8  CHE B   08     23.462  70.925  11.797  0.00  0.00    +0.152 HD
BRANCH  18  20
ATOM     20  C10 CHE B   08     23.072  71.444  10.627  0.00  0.00    +0.034 A 
ATOM     21  C11 CHE B   08     23.698  69.666  11.587  0.00  0.00    +0.043 A 
ATOM     22  C12 CHE B   08     23.661  66.137  13.473  0.00  0.00    +0.112 A 
ATOM     23  N2  CHE B   08     22.987  64.387  14.398  0.00  0.00    -0.263 NA
ATOM     24  C13 CHE B   08     22.562  71.455  10.613  0.00  0.00    +0.112 A 
ATOM     25  C14 CHE B   08     22.472  71.457  10.610  0.00  0.00    +0.043 A 
ENDBRANCH  18  20
ENDBRANCH   3  18
TORSDOF 3
ENDMDL
MODEL 8
REMARK VINA RESULT:      -8.3      3.314      5.194
REMARK  Name = dock_mp/CHEMBL5/CHEMBL560815.pdb
REMARK  4 active torsions:
REMARK  status: ('A' for Active; 'I' for Inactive)
REMARK    1  A    between atoms: C1_1  and  C2_2
REMARK    2  A    between atoms: C6_6  and  C7_7
REMARK    3  A    between atoms: C9_9  and  N1_10
REMARK    4  A    between atoms: N1_10  and  C10_11
REMARK                            x       y       z     vdW  Elec       q    Type
REMARK                         _______ _______ _______ _____ _____    ______ ____
ROOT
ATOM      1  C7  CHE B   08     21.897  69.889   8.296  0.00  0.00    +0.092 A 
ATOM      2  C8  CHE B   08     22.851  69.925   7.099  0.00  0.00    +0.053 A 
ATOM      3  C9  CHE B   08     23.208  70.786   2.032  0.00  0.00    +0.043 A 
ATOM      4  C15 CHE B   08     23.574  70.363   3.953  0.00  0.00    +0.022 A 
ATOM      5  C16 CHE B   08     24.866  69.982   4.682  0.00  0.00    +0.012 A 
ATOM      6  C17 CHE B   08     24.201  70.816   0.827  0.00  0.00    +0.001 A 
ATOM      7  C18 CHE B   08     23.247  70.780   2.024  0.00  0.00    +0.002 A 
ATOM      8  C19 CHE B   08     23.117  69.701   8.042  0.00  0.00    +0.028 A 
ATOM      9  C20 CHE B   08     22.611  70.328   5.152  0.00  0.00    +0.073 A 
ATOM     10  N3  CHE B   08     21.637  70.295   6.354  0.00  0.00    -0.245 NA
ENDROOT
BRANCH   1  16
ATOM     11  C1  CHE B   08     18.910  69.016   5.779  0.00  0.00    +0.065 C 
ATOM     12  C2  CHE B   08     18.691  68.930   3.790  0.00  0.00    +0.039 A 
ATOM     13  C3  CHE B   08     18.374  68.903   8.913  0.00  0.00    +0.023 A 
ATOM     14  C4  CHE B   08     17.323  68.523   2.003  0.00  0.00    +0.004 A 
ATOM     15  C5  CHE B   08     18.657  68.908   2.783  0.00  0.00    +0.030 A 
ATOM     16  C6  CHE B   08     20.995  69.661  10.481  0.00  0.00    +0.089 A 
ATOM     17  N4  CHE B   08     19.821  69.246   3.592  0.00  0.00    -0.250 NA
ENDBRANCH   1  16
BRANCH   3  18
ATOM     18  N1  CHE B   08     25.372  69.355   7.572  0.00  0.00    -0.314 N 
ATOM     19  H8  CHE B   08     22.662  68.731   2.172  0.00  0.00    +0.152 HD
BRANCH  18  20
ATOM     20  C10 CHE B   08     22.479  69.637   1.204  0.00  0.00    +0.034 A 
ATOM     21  C11 CHE B   08     23.791  69.109   2.777  0.00  0.00    +0.043 A 
ATOM     22  C12 CHE B   08     25.526  68.873   6.375  0.00  0.00    +0.112 A 
ATOM     23  N2  CHE B   08     25.942  69.170   8.402  0.00  0.00    -0.263 NA
ATOM     24  C13 CHE B   08     22.127  69.961   1.382  0.00  0.00    +0.112 A 
ATOM     25  C14 CHE B   08     22.065  70.018   1.413  0.00  0.00    +0.043 A 
ENDBRANCH  18  20
ENDBRANCH   3  18
TORSDOF 3
ENDMDL
MODEL 9
REMARK VINA RESULT:      -7.8      3.942      6.856
REMARK  Name = dock_mp/CHEMBL5/CHEMBL560815.pdb
REMARK  4 active torsions:
REMARK  status: ('A' for Active; 'I' for Inactive)
REMARK    1  A    between atoms: C1_1  and  C2_2
REMARK    2  A    between atoms: C6_6  and  C7_7
REMARK    3  A    between atoms: C9_9  and  N1_10
REMARK    4  A    between atoms: N1_10  and  C10_11
REMARK                            x       y       z     vdW  Elec       q    Type
REMARK                         _______ _______ _______ _____ _____    ______ ____
ROOT
ATOM      1  C7  CHE B   08     20.668  68.511  12.490  0.00  0.00    +0.092 A 
ATOM      2  C8  CHE B   08     21.031  68.920  11.060  0.00  0.00    +0.053 A 
ATOM      3  C9  CHE B   08     19.955  68.182   6.076  0.00  0.00    +0.043 A 
ATOM      4  C15 CHE B   08     20.719  68.798   7.819  0.00  0.00    +0.022 A 
ATOM      5  C16 CHE B   08     21.826  69.804   8.146  0.00  0.00    +0.012 A 
ATOM      6  C17 CHE B   08     20.344  68.616   4.626  0.00  0.00    +0.001 A 
ATOM      7  C18 CHE B   08     19.981  68.207   6.057  0.00  0.00    +0.002 A 
ATOM      8  C19 CHE B   08     21.466  69.279  11.891  0.00  0.00    +0.028 A 
ATOM      9  C20 CHE B   08     20.350  68.383   9.255  0.00  0.00    +0.073 A 
ATOM     10  N3  CHE B   08     19.974  67.962  10.695  0.00  0.00    -0.245 NA
ENDROOT
BRANCH   1  16
ATOM     11  C1  CHE B   08     24.374  67.451  11.411  0.00  0.00    +0.065 C 
ATOM     12  C2  CHE B   08     25.372  67.290   9.682  0.00  0.00    +0.039 A 
ATOM     13  C3  CHE B   08     23.595  67.428  14.496  0.00  0.00    +0.023 A 
ATOM     14  C4  CHE B   08     27.324  66.776   8.608  0.00  0.00    +0.004 A 
ATOM     15  C5  CHE B   08     25.807  67.233   8.775  0.00  0.00    +0.030 A 
ATOM     16  C6  CHE B   08     20.601  68.328  14.857  0.00  0.00    +0.089 A 
ATOM     17  N4  CHE B   08     24.433  67.638   9.039  0.00  0.00    -0.250 NA
ENDBRANCH   1  16
BRANCH   3  18
ATOM     18  N1  CHE B   08     22.943  70.701  10.782  0.00  0.00    -0.314 N 
ATOM     19  H8  CHE B   08     18.413  69.350   6.969  0.00  0.00    +0.152 HD
BRANCH  18  20
ATOM     20  C10 CHE B   08     18.416  68.551   5.894  0.00  0.00    +0.034 A 
ATOM     21  C11 CHE B   08     19.648  69.824   7.051  0.00  0.00    +0.043 A 
ATOM     22  C12 CHE B   08     22.224  71.164   9.804  0.00  0.00    +0.112 A 
ATOM     23  N2  CHE B   08     23.569  71.220  11.403  0.00  0.00    -0.263 NA
ATOM     24  C13 CHE B   08     18.461  68.073   6.068  0.00  0.00    +0.112 A 
ATOM     25  C14 CHE B   08     18.469  67.989   6.099  0.00  0.00    +0.043 A 
ENDBRANCH  18  20
ENDBRANCH   3  18
TORSDOF 3
ENDMDL
