MODEL 1
REMARK VINA RESULT:     -12.6      0.000      0.000
REMARK  Name = dock_mp/CHEMBL5/CHEMBL585505.pdb
REMARK  9 active torsions:
REMARK  status: ('A' for Active; 'I' for Inactive)
REMARK    1  A    between atoms: C1_1  and  C2_2
REMARK    2  A    between atoms: C2_2  and  C3_3
REMARK    3  A    between atoms: C2_2  and  C4_4
REMARK    4  A    between atoms: C5_6  and  C6_7
REMARK    5  A    between atoms: C10_11  and  C11_12
REMARK    6  A    between atoms: C12_14  and  C13_15
REMARK    7  A    between atoms: C16_19  and  C17_20
REMARK    8  A    between atoms: C20_23  and  C21_24
REMARK    9  A    between atoms: N4_26  and  C22_27
REMARK                            x       y       z     vdW  Elec       q    Type
REMARK                         _______ _______ _______ _____ _____    ______ ____
ROOT
ATOM      1  C13 CHE B   05     18.718  68.524   9.407  0.00  0.00    +0.004 A 
ATOM      2  C14 CHE B   05     17.777  68.108   5.535  0.00  0.00    +0.030 A 
ATOM      3  C15 CHE B   05     19.300  68.737   8.257  0.00  0.00    +0.112 A 
ATOM      4  N3  CHE B   05     20.432  69.175   8.005  0.00  0.00    -0.255 NA
ATOM      5  C16 CHE B   05     21.076  69.451   9.903  0.00  0.00    +0.072 A 
ATOM      6  C29 CHE B   05     20.284  69.157  11.099  0.00  0.00    +0.038 A 
ENDROOT
BRANCH   1  10
ATOM      7  C4  CHE B   05     15.135  67.327   4.054  0.00  0.00    +0.111 A 
ATOM      8  N1  CHE B   05     15.092  67.480   6.090  0.00  0.00    -0.230 NA
ATOM      9  C5  CHE B   05     15.597  67.419   3.961  0.00  0.00    +0.115 A 
ATOM     10  C12 CHE B   05     16.558  67.610   3.765  0.00  0.00    +0.076 A 
ATOM     11  N5  CHE B   05     16.251  67.549   3.828  0.00  0.00    -0.341 N 
ATOM     12  H31 CHE B   05     16.623  67.542   2.739  0.00  0.00    +0.167 HD
BRANCH   9  13
ATOM     13  C6  CHE B   05     16.075  67.756   6.903  0.00  0.00    +0.092 A 
ATOM     14  C7  CHE B   05     15.787  68.648   6.832  0.00  0.00    +0.030 A 
ATOM     15  C8  CHE B   05     15.823  68.534   6.841  0.00  0.00    +0.004 A 
ATOM     16  C9  CHE B   05     15.843  67.262   4.963  0.00  0.00    +0.023 A 
ATOM     17  C10 CHE B   05     17.206  67.288  11.890  0.00  0.00    +0.039 A 
ATOM     18  C11 CHE B   05     17.102  65.793   9.040  0.00  0.00    +0.065 C 
ATOM     19  N2  CHE B   05     16.086  66.513   5.023  0.00  0.00    -0.250 NA
ENDBRANCH   9  13
BRANCH   7  21
ATOM     20  C1  CHE B   05     15.240  67.414   4.022  0.00  0.00    +0.015 C 
ATOM     21  C2  CHE B   05     15.116  67.646   8.112  0.00  0.00    +0.049 C 
ATOM     22  C3  CHE B   05     14.666  67.188   7.237  0.00  0.00    +0.015 C 
ENDBRANCH   7  21
ENDBRANCH   1  10
BRANCH   5  23
ATOM     23  C17 CHE B   05     21.587  69.597   5.708  0.00  0.00    +0.000 A 
ATOM     24  C18 CHE B   05     22.527  69.837   8.571  0.00  0.00    +0.011 A 
ATOM     25  C19 CHE B   05     22.813  69.926   3.403  0.00  0.00    +0.014 A 
ATOM     26  C20 CHE B   05     23.760  70.176   3.201  0.00  0.00    +0.037 A 
ATOM     27  C27 CHE B   05     24.579  70.376   9.154  0.00  0.00    +0.014 A 
ATOM     28  C28 CHE B   05     23.123  69.994   8.444  0.00  0.00    +0.011 A 
BRANCH  26  29
ATOM     29  C21 CHE B   05     25.244  70.565   3.905  0.00  0.00    +0.244 C 
ATOM     30  O1  CHE B   05     24.852  71.337   3.349  0.00  0.00    -0.270 OA
ATOM     31  N4  CHE B   05     26.558  70.773   4.585  0.00  0.00    -0.308 N 
ATOM     32  H18 CHE B   05     25.899  71.262   3.994  0.00  0.00    +0.149 HD
BRANCH  31  33
ATOM     33  C22 CHE B   05     25.803  73.537   2.977  0.00  0.00    +0.078 C 
ATOM     34  C23 CHE B   05     28.167  71.842   5.816  0.00  0.00    +0.050 C 
ATOM     35  C24 CHE B   05     30.389  71.230   8.174  0.00  0.00    +0.161 C 
ATOM     36  O2  CHE B   05     27.709  75.042   4.360  0.00  0.00    -0.380 OA
ATOM     37  C25 CHE B   05     30.959  70.774   8.873  0.00  0.00    +0.161 C 
ATOM     38  C26 CHE B   05     26.724  73.598   3.856  0.00  0.00    +0.050 C 
ENDBRANCH  31  33
ENDBRANCH  26  29
ENDBRANCH   5  23
TORSDOF 6
ENDMDL
MODEL 2
REMARK VINA RESULT:     -12.5      1.562      2.169
REMARK  Name = dock_mp/CHEMBL5/CHEMBL585505.pdb
REMARK  9 active torsions:
REMARK  status: ('A' for Active; 'I' for Inactive)
REMARK    1  A    between atoms: C1_1  and  C2_2
REMARK    2  A    between atoms: C2_2  and  C3_3
REMARK    3  A    between atoms: C2_2  and  C4_4
REMARK    4  A    between atoms: C5_6  and  C6_7
REMARK    5  A    between atoms: C10_11  and  C11_12
REMARK    6  A    between atoms: C12_14  and  C13_15
REMARK    7  A    between atoms: C16_19  and  C17_20
REMARK    8  A    between atoms: C20_23  and  C21_24
REMARK    9  A    between atoms: N4_26  and  C22_27
REMARK                            x       y       z     vdW  Elec       q    Type
REMARK                         _______ _______ _______ _____ _____    ______ ____
ROOT
ATOM      1  C13 CHE B   05     18.710  68.552   9.439  0.00  0.00    +0.004 A 
ATOM      2  C14 CHE B   05     17.802  68.142   5.559  0.00  0.00    +0.030 A 
ATOM      3  C15 CHE B   05     19.305  68.758   8.295  0.00  0.00    +0.112 A 
ATOM      4  N3  CHE B   05     20.443  69.185   8.054  0.00  0.00    -0.255 NA
ATOM      5  C16 CHE B   05     21.072  69.456   9.957  0.00  0.00    +0.072 A 
ATOM      6  C29 CHE B   05     20.266  69.171  11.146  0.00  0.00    +0.038 A 
ENDROOT
BRANCH   1  10
ATOM      7  C4  CHE B   05     15.172  67.356   4.057  0.00  0.00    +0.111 A 
ATOM      8  N1  CHE B   05     15.114  67.495   6.093  0.00  0.00    -0.230 NA
ATOM      9  C5  CHE B   05     15.633  67.453   3.967  0.00  0.00    +0.115 A 
ATOM     10  C12 CHE B   05     16.594  67.655   3.779  0.00  0.00    +0.076 A 
ATOM     11  N5  CHE B   05     16.287  67.590   3.839  0.00  0.00    -0.341 N 
ATOM     12  H31 CHE B   05     16.666  67.594   2.752  0.00  0.00    +0.167 HD
BRANCH   9  13
ATOM     13  C6  CHE B   05     16.090  67.775   6.914  0.00  0.00    +0.092 A 
ATOM     14  C7  CHE B   05     15.797  68.666   6.847  0.00  0.00    +0.030 A 
ATOM     15  C8  CHE B   05     15.834  68.552   6.855  0.00  0.00    +0.004 A 
ATOM     16  C9  CHE B   05     15.874  67.292   4.970  0.00  0.00    +0.023 A 
ATOM     17  C10 CHE B   05     17.191  67.284  11.906  0.00  0.00    +0.039 A 
ATOM     18  C11 CHE B   05     17.116  65.806   9.046  0.00  0.00    +0.065 C 
ATOM     19  N2  CHE B   05     16.121  66.544   5.027  0.00  0.00    -0.250 NA
ENDBRANCH   9  13
BRANCH   7  21
ATOM     20  C1  CHE B   05     15.276  67.445   4.026  0.00  0.00    +0.015 C 
ATOM     21  C2  CHE B   05     15.124  67.648   8.116  0.00  0.00    +0.049 C 
ATOM     22  C3  CHE B   05     14.686  67.190   7.236  0.00  0.00    +0.015 C 
ENDBRANCH   7  21
ENDBRANCH   1  10
BRANCH   5  23
ATOM     23  C17 CHE B   05     21.624  69.593   5.767  0.00  0.00    +0.000 A 
ATOM     24  C18 CHE B   05     22.550  69.780   8.638  0.00  0.00    +0.011 A 
ATOM     25  C19 CHE B   05     22.883  69.875   3.473  0.00  0.00    +0.014 A 
ATOM     26  C20 CHE B   05     23.842  70.082   3.280  0.00  0.00    +0.037 A 
ATOM     27  C27 CHE B   05     24.620  70.222   9.239  0.00  0.00    +0.014 A 
ATOM     28  C28 CHE B   05     23.154  69.910   8.516  0.00  0.00    +0.011 A 
BRANCH  26  29
ATOM     29  C21 CHE B   05     25.336  70.400   3.997  0.00  0.00    +0.244 C 
ATOM     30  O1  CHE B   05     25.222  69.413   3.734  0.00  0.00    -0.270 OA
ATOM     31  N4  CHE B   05     26.615  70.823   4.643  0.00  0.00    -0.308 N 
ATOM     32  H18 CHE B   05     26.165  69.999   4.270  0.00  0.00    +0.149 HD
BRANCH  31  33
ATOM     33  C22 CHE B   05     26.807  67.601   4.032  0.00  0.00    +0.078 C 
ATOM     34  C23 CHE B   05     27.397  70.539   6.777  0.00  0.00    +0.050 C 
ATOM     35  C24 CHE B   05     28.120  72.293   9.475  0.00  0.00    +0.161 C 
ATOM     36  O2  CHE B   05     27.775  67.019   6.588  0.00  0.00    -0.380 OA
ATOM     37  C25 CHE B   05     28.254  73.049  10.130  0.00  0.00    +0.161 C 
ATOM     38  C26 CHE B   05     27.161  68.005   5.187  0.00  0.00    +0.050 C 
ENDBRANCH  31  33
ENDBRANCH  26  29
ENDBRANCH   5  23
TORSDOF 6
ENDMDL
MODEL 3
REMARK VINA RESULT:     -12.2      2.329      5.342
REMARK  Name = dock_mp/CHEMBL5/CHEMBL585505.pdb
REMARK  9 active torsions:
REMARK  status: ('A' for Active; 'I' for Inactive)
REMARK    1  A    between atoms: C1_1  and  C2_2
REMARK    2  A    between atoms: C2_2  and  C3_3
REMARK    3  A    between atoms: C2_2  and  C4_4
REMARK    4  A    between atoms: C5_6  and  C6_7
REMARK    5  A    between atoms: C10_11  and  C11_12
REMARK    6  A    between atoms: C12_14  and  C13_15
REMARK    7  A    between atoms: C16_19  and  C17_20
REMARK    8  A    between atoms: C20_23  and  C21_24
REMARK    9  A    between atoms: N4_26  and  C22_27
REMARK                            x       y       z     vdW  Elec       q    Type
REMARK                         _______ _______ _______ _____ _____    ______ ____
ROOT
ATOM      1  C13 CHE B   05     17.685  68.783   4.915  0.00  0.00    +0.004 A 
ATOM      2  C14 CHE B   05     18.633  68.451   8.793  0.00  0.00    +0.030 A 
ATOM      3  C15 CHE B   05     18.762  68.893   5.644  0.00  0.00    +0.112 A 
ATOM      4  N3  CHE B   05     19.926  69.161   5.312  0.00  0.00    -0.255 NA
ATOM      5  C16 CHE B   05     19.630  69.369   3.322  0.00  0.00    +0.072 A 
ATOM      6  C29 CHE B   05     18.337  69.209   2.654  0.00  0.00    +0.038 A 
ENDROOT
BRANCH   1  10
ATOM      7  C4  CHE B   05     16.925  67.966  11.370  0.00  0.00    +0.111 A 
ATOM      8  N1  CHE B   05     15.951  68.116   9.583  0.00  0.00    -0.230 NA
ATOM      9  C5  CHE B   05     17.384  68.012  11.234  0.00  0.00    +0.115 A 
ATOM     10  C12 CHE B   05     18.338  68.107  10.951  0.00  0.00    +0.076 A 
ATOM     11  N5  CHE B   05     18.032  68.077  11.042  0.00  0.00    -0.341 N 
ATOM     12  H31 CHE B   05     18.868  68.037  11.832  0.00  0.00    +0.167 HD
BRANCH   9  13
ATOM     13  C6  CHE B   05     16.460  68.291   8.393  0.00  0.00    +0.092 A 
ATOM     14  C7  CHE B   05     16.323  69.208   8.544  0.00  0.00    +0.030 A 
ATOM     15  C8  CHE B   05     16.340  69.091   8.525  0.00  0.00    +0.004 A 
ATOM     16  C9  CHE B   05     17.117  67.828  10.242  0.00  0.00    +0.023 A 
ATOM     17  C10 CHE B   05     15.081  67.694   3.483  0.00  0.00    +0.039 A 
ATOM     18  C11 CHE B   05     16.183  66.225   6.128  0.00  0.00    +0.065 C 
ATOM     19  N2  CHE B   05     17.233  67.057  10.115  0.00  0.00    -0.250 NA
ENDBRANCH   9  13
BRANCH   7  21
ATOM     20  C1  CHE B   05     17.035  68.051  11.349  0.00  0.00    +0.015 C 
ATOM     21  C2  CHE B   05     15.043  68.273   7.775  0.00  0.00    +0.049 C 
ATOM     22  C3  CHE B   05     15.037  67.831   8.766  0.00  0.00    +0.015 C 
ENDBRANCH   7  21
ENDBRANCH   1  10
BRANCH   5  23
ATOM     23  C17 CHE B   05     22.072  69.379   6.774  0.00  0.00    +0.000 A 
ATOM     24  C18 CHE B   05     21.581  69.422   3.792  0.00  0.00    +0.011 A 
ATOM     25  C19 CHE B   05     24.276  69.422   8.212  0.00  0.00    +0.014 A 
ATOM     26  C20 CHE B   05     25.235  69.458   7.930  0.00  0.00    +0.037 A 
ATOM     27  C27 CHE B   05     23.178  69.502   2.281  0.00  0.00    +0.014 A 
ATOM     28  C28 CHE B   05     22.185  69.444   3.615  0.00  0.00    +0.011 A 
BRANCH  26  29
ATOM     29  C21 CHE B   05     26.257  69.516   6.588  0.00  0.00    +0.244 C 
ATOM     30  O1  CHE B   05     26.436  70.274   7.260  0.00  0.00    -0.270 OA
ATOM     31  N4  CHE B   05     27.091  69.447   5.350  0.00  0.00    -0.308 N 
ATOM     32  H18 CHE B   05     26.978  70.006   6.186  0.00  0.00    +0.149 HD
BRANCH  31  33
ATOM     33  C22 CHE B   05     28.096  72.037   7.106  0.00  0.00    +0.078 C 
ATOM     34  C23 CHE B   05     27.548  70.515   3.377  0.00  0.00    +0.050 C 
ATOM     35  C24 CHE B   05     27.399  70.014   0.121  0.00  0.00    +0.161 C 
ATOM     36  O2  CHE B   05     28.726  73.529   4.828  0.00  0.00    -0.380 OA
ATOM     37  C25 CHE B   05     27.249  69.603  -0.789  0.00  0.00    +0.161 C 
ATOM     38  C26 CHE B   05     28.151  72.126   5.836  0.00  0.00    +0.050 C 
ENDBRANCH  31  33
ENDBRANCH  26  29
ENDBRANCH   5  23
TORSDOF 6
ENDMDL
MODEL 4
REMARK VINA RESULT:     -12.1      2.831      5.579
REMARK  Name = dock_mp/CHEMBL5/CHEMBL585505.pdb
REMARK  9 active torsions:
REMARK  status: ('A' for Active; 'I' for Inactive)
REMARK    1  A    between atoms: C1_1  and  C2_2
REMARK    2  A    between atoms: C2_2  and  C3_3
REMARK    3  A    between atoms: C2_2  and  C4_4
REMARK    4  A    between atoms: C5_6  and  C6_7
REMARK    5  A    between atoms: C10_11  and  C11_12
REMARK    6  A    between atoms: C12_14  and  C13_15
REMARK    7  A    between atoms: C16_19  and  C17_20
REMARK    8  A    between atoms: C20_23  and  C21_24
REMARK    9  A    between atoms: N4_26  and  C22_27
REMARK                            x       y       z     vdW  Elec       q    Type
REMARK                         _______ _______ _______ _____ _____    ______ ____
ROOT
ATOM      1  C13 CHE B   05     17.739  68.806   4.804  0.00  0.00    +0.004 A 
ATOM      2  C14 CHE B   05     18.750  68.508   8.669  0.00  0.00    +0.030 A 
ATOM      3  C15 CHE B   05     18.832  68.901   5.513  0.00  0.00    +0.112 A 
ATOM      4  N3  CHE B   05     19.996  69.136   5.156  0.00  0.00    -0.255 NA
ATOM      5  C16 CHE B   05     19.669  69.321   3.169  0.00  0.00    +0.072 A 
ATOM      6  C29 CHE B   05     18.361  69.182   2.526  0.00  0.00    +0.038 A 
ENDROOT
BRANCH   1  10
ATOM      7  C4  CHE B   05     17.078  68.084  11.282  0.00  0.00    +0.111 A 
ATOM      8  N1  CHE B   05     16.076  68.220   9.509  0.00  0.00    -0.230 NA
ATOM      9  C5  CHE B   05     17.535  68.123  11.138  0.00  0.00    +0.115 A 
ATOM     10  C12 CHE B   05     18.485  68.204  10.838  0.00  0.00    +0.076 A 
ATOM     11  N5  CHE B   05     18.181  68.178  10.934  0.00  0.00    -0.341 N 
ATOM     12  H31 CHE B   05     19.029  68.139  11.711  0.00  0.00    +0.167 HD
BRANCH   9  13
ATOM     13  C6  CHE B   05     16.568  68.373   8.308  0.00  0.00    +0.092 A 
ATOM     14  C7  CHE B   05     16.455  69.296   8.445  0.00  0.00    +0.030 A 
ATOM     15  C8  CHE B   05     16.470  69.178   8.428  0.00  0.00    +0.004 A 
ATOM     16  C9  CHE B   05     17.246  67.928  10.153  0.00  0.00    +0.023 A 
ATOM     17  C10 CHE B   05     15.086  67.723   3.435  0.00  0.00    +0.039 A 
ATOM     18  C11 CHE B   05     16.199  66.274   6.087  0.00  0.00    +0.065 C 
ATOM     19  N2  CHE B   05     17.340  67.152  10.039  0.00  0.00    -0.250 NA
ENDBRANCH   9  13
BRANCH   7  21
ATOM     20  C1  CHE B   05     17.203  68.136  11.247  0.00  0.00    +0.015 C 
ATOM     21  C2  CHE B   05     15.140  68.362   7.714  0.00  0.00    +0.049 C 
ATOM     22  C3  CHE B   05     15.081  68.065   8.756  0.00  0.00    +0.015 C 
ENDBRANCH   7  21
ENDBRANCH   1  10
BRANCH   5  23
ATOM     23  C17 CHE B   05     22.173  69.324   6.577  0.00  0.00    +0.000 A 
ATOM     24  C18 CHE B   05     21.625  69.429   3.606  0.00  0.00    +0.011 A 
ATOM     25  C19 CHE B   05     24.400  69.404   7.976  0.00  0.00    +0.014 A 
ATOM     26  C20 CHE B   05     25.351  69.481   7.679  0.00  0.00    +0.037 A 
ATOM     27  C27 CHE B   05     23.191  69.605   2.070  0.00  0.00    +0.014 A 
ATOM     28  C28 CHE B   05     22.225  69.477   3.418  0.00  0.00    +0.011 A 
BRANCH  26  29
ATOM     29  C21 CHE B   05     26.346  69.611   6.321  0.00  0.00    +0.244 C 
ATOM     30  O1  CHE B   05     26.203  68.638   6.619  0.00  0.00    -0.270 OA
ATOM     31  N4  CHE B   05     27.207  69.873   5.129  0.00  0.00    -0.308 N 
ATOM     32  H18 CHE B   05     26.857  69.105   5.685  0.00  0.00    +0.149 HD
BRANCH  31  33
ATOM     33  C22 CHE B   05     27.108  66.625   5.612  0.00  0.00    +0.078 C 
ATOM     34  C23 CHE B   05     28.575  69.634   3.308  0.00  0.00    +0.050 C 
ATOM     35  C24 CHE B   05     30.118  71.454   1.031  0.00  0.00    +0.161 C 
ATOM     36  O2  CHE B   05     28.769  66.096   3.427  0.00  0.00    -0.380 OA
ATOM     37  C25 CHE B   05     30.464  72.227   0.481  0.00  0.00    +0.161 C 
ATOM     38  C26 CHE B   05     27.799  67.056   4.632  0.00  0.00    +0.050 C 
ENDBRANCH  31  33
ENDBRANCH  26  29
ENDBRANCH   5  23
TORSDOF 6
ENDMDL
MODEL 5
REMARK VINA RESULT:     -11.5      5.430      8.520
REMARK  Name = dock_mp/CHEMBL5/CHEMBL585505.pdb
REMARK  9 active torsions:
REMARK  status: ('A' for Active; 'I' for Inactive)
REMARK    1  A    between atoms: C1_1  and  C2_2
REMARK    2  A    between atoms: C2_2  and  C3_3
REMARK    3  A    between atoms: C2_2  and  C4_4
REMARK    4  A    between atoms: C5_6  and  C6_7
REMARK    5  A    between atoms: C10_11  and  C11_12
REMARK    6  A    between atoms: C12_14  and  C13_15
REMARK    7  A    between atoms: C16_19  and  C17_20
REMARK    8  A    between atoms: C20_23  and  C21_24
REMARK    9  A    between atoms: N4_26  and  C22_27
REMARK                            x       y       z     vdW  Elec       q    Type
REMARK                         _______ _______ _______ _____ _____    ______ ____
ROOT
ATOM      1  C13 CHE B   05     20.681  69.573   8.719  0.00  0.00    +0.004 A 
ATOM      2  C14 CHE B   05     17.236  67.709   9.559  0.00  0.00    +0.030 A 
ATOM      3  C15 CHE B   05     20.106  69.065   9.776  0.00  0.00    +0.112 A 
ATOM      4  N3  CHE B   05     20.502  69.008  10.950  0.00  0.00    -0.255 NA
ATOM      5  C16 CHE B   05     22.285  69.931  10.710  0.00  0.00    +0.072 A 
ATOM      6  C29 CHE B   05     22.787  70.449   9.435  0.00  0.00    +0.038 A 
ENDROOT
BRANCH   1  10
ATOM      7  C4  CHE B   05     14.756  66.929   7.813  0.00  0.00    +0.111 A 
ATOM      8  N1  CHE B   05     16.300  67.910   6.907  0.00  0.00    -0.230 NA
ATOM      9  C5  CHE B   05     14.916  66.892   8.264  0.00  0.00    +0.115 A 
ATOM     10  C12 CHE B   05     15.251  66.815   9.203  0.00  0.00    +0.076 A 
ATOM     11  N5  CHE B   05     15.144  66.839   8.902  0.00  0.00    -0.341 N 
ATOM     12  H31 CHE B   05     14.494  66.321   9.698  0.00  0.00    +0.167 HD
BRANCH   9  13
ATOM     13  C6  CHE B   05     17.422  68.319   7.435  0.00  0.00    +0.092 A 
ATOM     14  C7  CHE B   05     16.973  69.138   7.544  0.00  0.00    +0.030 A 
ATOM     15  C8  CHE B   05     17.031  69.033   7.530  0.00  0.00    +0.004 A 
ATOM     16  C9  CHE B   05     15.887  67.121   7.954  0.00  0.00    +0.023 A 
ATOM     17  C10 CHE B   05     22.117  69.752   5.927  0.00  0.00    +0.039 A 
ATOM     18  C11 CHE B   05     20.194  67.262   6.615  0.00  0.00    +0.065 C 
ATOM     19  N2  CHE B   05     16.264  66.433   7.863  0.00  0.00    -0.250 NA
ENDBRANCH   9  13
BRANCH   7  21
ATOM     20  C1  CHE B   05     14.782  66.955   7.948  0.00  0.00    +0.015 C 
ATOM     21  C2  CHE B   05     17.868  68.885   6.066  0.00  0.00    +0.049 C 
ATOM     22  C3  CHE B   05     16.977  68.285   5.916  0.00  0.00    +0.015 C 
ENDBRANCH   7  21
ENDBRANCH   1  10
BRANCH   5  23
ATOM     23  C17 CHE B   05     19.349  67.993  13.054  0.00  0.00    +0.000 A 
ATOM     24  C18 CHE B   05     22.165  68.890  12.421  0.00  0.00    +0.011 A 
ATOM     25  C19 CHE B   05     18.330  66.616  15.052  0.00  0.00    +0.014 A 
ATOM     26  C20 CHE B   05     18.769  66.219  15.858  0.00  0.00    +0.037 A 
ATOM     27  C27 CHE B   05     23.910  68.459  13.690  0.00  0.00    +0.014 A 
ATOM     28  C28 CHE B   05     22.441  68.640  12.929  0.00  0.00    +0.011 A 
BRANCH  26  29
ATOM     29  C21 CHE B   05     20.251  66.026  16.643  0.00  0.00    +0.244 C 
ATOM     30  O1  CHE B   05     20.056  67.004  16.393  0.00  0.00    -0.270 OA
ATOM     31  N4  CHE B   05     21.532  65.710  17.345  0.00  0.00    -0.308 N 
ATOM     32  H18 CHE B   05     21.023  66.497  16.964  0.00  0.00    +0.149 HD
BRANCH  31  33
ATOM     33  C22 CHE B   05     21.446  68.950  16.802  0.00  0.00    +0.078 C 
ATOM     34  C23 CHE B   05     23.803  65.745  17.638  0.00  0.00    +0.050 C 
ATOM     35  C24 CHE B   05     26.312  63.711  18.301  0.00  0.00    +0.161 C 
ATOM     36  O2  CHE B   05     24.209  69.229  17.120  0.00  0.00    -0.380 OA
ATOM     37  C25 CHE B   05     26.866  62.892  18.508  0.00  0.00    +0.161 C 
ATOM     38  C26 CHE B   05     22.581  68.420  17.038  0.00  0.00    +0.050 C 
ENDBRANCH  31  33
ENDBRANCH  26  29
ENDBRANCH   5  23
TORSDOF 6
ENDMDL
MODEL 6
REMARK VINA RESULT:     -11.5      4.979      8.258
REMARK  Name = dock_mp/CHEMBL5/CHEMBL585505.pdb
REMARK  9 active torsions:
REMARK  status: ('A' for Active; 'I' for Inactive)
REMARK    1  A    between atoms: C1_1  and  C2_2
REMARK    2  A    between atoms: C2_2  and  C3_3
REMARK    3  A    between atoms: C2_2  and  C4_4
REMARK    4  A    between atoms: C5_6  and  C6_7
REMARK    5  A    between atoms: C10_11  and  C11_12
REMARK    6  A    between atoms: C12_14  and  C13_15
REMARK    7  A    between atoms: C16_19  and  C17_20
REMARK    8  A    between atoms: C20_23  and  C21_24
REMARK    9  A    between atoms: N4_26  and  C22_27
REMARK                            x       y       z     vdW  Elec       q    Type
REMARK                         _______ _______ _______ _____ _____    ______ ____
ROOT
ATOM      1  C13 CHE B   05     19.978  69.579   6.542  0.00  0.00    +0.004 A 
ATOM      2  C14 CHE B   05     16.758  67.399   7.503  0.00  0.00    +0.030 A 
ATOM      3  C15 CHE B   05     19.455  69.082   7.630  0.00  0.00    +0.112 A 
ATOM      4  N3  CHE B   05     19.845  69.150   8.805  0.00  0.00    -0.255 NA
ATOM      5  C16 CHE B   05     21.515  70.250   8.505  0.00  0.00    +0.072 A 
ATOM      6  C29 CHE B   05     21.966  70.734   7.198  0.00  0.00    +0.038 A 
ENDROOT
BRANCH   1  10
ATOM      7  C4  CHE B   05     14.478  66.100   5.795  0.00  0.00    +0.111 A 
ATOM      8  N1  CHE B   05     15.953  67.116   4.816  0.00  0.00    -0.230 NA
ATOM      9  C5  CHE B   05     14.611  66.154   6.253  0.00  0.00    +0.115 A 
ATOM     10  C12 CHE B   05     14.889  66.265   7.207  0.00  0.00    +0.076 A 
ATOM     11  N5  CHE B   05     14.800  66.229   6.902  0.00  0.00    -0.341 N 
ATOM     12  H31 CHE B   05     14.164  65.762   7.739  0.00  0.00    +0.167 HD
BRANCH   9  13
ATOM     13  C6  CHE B   05     16.982  67.741   5.324  0.00  0.00    +0.092 A 
ATOM     14  C7  CHE B   05     16.417  68.483   5.202  0.00  0.00    +0.030 A 
ATOM     15  C8  CHE B   05     16.489  68.388   5.217  0.00  0.00    +0.004 A 
ATOM     16  C9  CHE B   05     15.571  66.459   5.980  0.00  0.00    +0.023 A 
ATOM     17  C10 CHE B   05     21.585  69.529   3.917  0.00  0.00    +0.039 A 
ATOM     18  C11 CHE B   05     19.947  66.979   5.005  0.00  0.00    +0.065 C 
ATOM     19  N2  CHE B   05     16.046  65.836   6.083  0.00  0.00    -0.250 NA
ENDBRANCH   9  13
BRANCH   7  21
ATOM     20  C1  CHE B   05     14.518  66.114   5.928  0.00  0.00    +0.015 C 
ATOM     21  C2  CHE B   05     17.448  68.140   3.904  0.00  0.00    +0.049 C 
ATOM     22  C3  CHE B   05     16.532  67.570   3.798  0.00  0.00    +0.015 C 
ENDBRANCH   7  21
ENDBRANCH   1  10
BRANCH   5  23
ATOM     23  C17 CHE B   05     18.794  68.157  10.973  0.00  0.00    +0.000 A 
ATOM     24  C18 CHE B   05     21.414  69.542  10.380  0.00  0.00    +0.011 A 
ATOM     25  C19 CHE B   05     17.859  66.975  13.130  0.00  0.00    +0.014 A 
ATOM     26  C20 CHE B   05     18.274  66.843  14.031  0.00  0.00    +0.037 A 
ATOM     27  C27 CHE B   05     23.049  69.762  11.836  0.00  0.00    +0.014 A 
ATOM     28  C28 CHE B   05     21.675  69.459  10.947  0.00  0.00    +0.011 A 
BRANCH  26  29
ATOM     29  C21 CHE B   05     19.660  67.142  14.946  0.00  0.00    +0.244 C 
ATOM     30  O1  CHE B   05     19.196  66.260  15.200  0.00  0.00    -0.270 OA
ATOM     31  N4  CHE B   05     20.902  67.532  15.679  0.00  0.00    -0.308 N 
ATOM     32  H18 CHE B   05     20.213  66.792  15.648  0.00  0.00    +0.149 HD
BRANCH  31  33
ATOM     33  C22 CHE B   05     19.869  64.660  16.895  0.00  0.00    +0.078 C 
ATOM     34  C23 CHE B   05     22.819  67.455  16.930  0.00  0.00    +0.050 C 
ATOM     35  C24 CHE B   05     25.552  69.209  17.504  0.00  0.00    +0.161 C 
ATOM     36  O2  CHE B   05     22.131  64.356  18.508  0.00  0.00    -0.380 OA
ATOM     37  C25 CHE B   05     26.264  69.925  17.487  0.00  0.00    +0.161 C 
ATOM     38  C26 CHE B   05     20.989  65.107  17.306  0.00  0.00    +0.050 C 
ENDBRANCH  31  33
ENDBRANCH  26  29
ENDBRANCH   5  23
TORSDOF 6
ENDMDL
MODEL 7
REMARK VINA RESULT:     -11.5      1.898      2.579
REMARK  Name = dock_mp/CHEMBL5/CHEMBL585505.pdb
REMARK  9 active torsions:
REMARK  status: ('A' for Active; 'I' for Inactive)
REMARK    1  A    between atoms: C1_1  and  C2_2
REMARK    2  A    between atoms: C2_2  and  C3_3
REMARK    3  A    between atoms: C2_2  and  C4_4
REMARK    4  A    between atoms: C5_6  and  C6_7
REMARK    5  A    between atoms: C10_11  and  C11_12
REMARK    6  A    between atoms: C12_14  and  C13_15
REMARK    7  A    between atoms: C16_19  and  C17_20
REMARK    8  A    between atoms: C20_23  and  C21_24
REMARK    9  A    between atoms: N4_26  and  C22_27
REMARK                            x       y       z     vdW  Elec       q    Type
REMARK                         _______ _______ _______ _____ _____    ______ ____
ROOT
ATOM      1  C13 CHE B   05     19.322  67.969   7.462  0.00  0.00    +0.004 A 
ATOM      2  C14 CHE B   05     18.819  69.158   3.670  0.00  0.00    +0.030 A 
ATOM      3  C15 CHE B   05     20.030  68.589   6.556  0.00  0.00    +0.112 A 
ATOM      4  N3  CHE B   05     21.186  69.035   6.615  0.00  0.00    -0.255 NA
ATOM      5  C16 CHE B   05     21.614  68.509   8.520  0.00  0.00    +0.072 A 
ATOM      6  C29 CHE B   05     20.692  67.807   9.415  0.00  0.00    +0.038 A 
ENDROOT
BRANCH   1  10
ATOM      7  C4  CHE B   05     16.462  68.840   1.633  0.00  0.00    +0.111 A 
ATOM      8  N1  CHE B   05     16.249  68.014   3.488  0.00  0.00    -0.230 NA
ATOM      9  C5  CHE B   05     16.897  69.040   1.666  0.00  0.00    +0.115 A 
ATOM     10  C12 CHE B   05     17.804  69.457   1.735  0.00  0.00    +0.076 A 
ATOM     11  N5  CHE B   05     17.513  69.324   1.713  0.00  0.00    -0.341 N 
ATOM     12  H31 CHE B   05     17.951  69.889   0.811  0.00  0.00    +0.167 HD
BRANCH   9  13
ATOM     13  C6  CHE B   05     17.090  68.036   4.487  0.00  0.00    +0.092 A 
ATOM     14  C7  CHE B   05     17.401  67.213   4.156  0.00  0.00    +0.030 A 
ATOM     15  C8  CHE B   05     17.361  67.318   4.198  0.00  0.00    +0.004 A 
ATOM     16  C9  CHE B   05     16.868  68.954   2.706  0.00  0.00    +0.023 A 
ATOM     17  C10 CHE B   05     17.052  67.313   9.571  0.00  0.00    +0.039 A 
ATOM     18  C11 CHE B   05     16.455  69.386   7.180  0.00  0.00    +0.065 C 
ATOM     19  N2  CHE B   05     16.606  69.645   2.984  0.00  0.00    -0.250 NA
ENDBRANCH   9  13
BRANCH   7  21
ATOM     20  C1  CHE B   05     16.601  68.852   1.624  0.00  0.00    +0.015 C 
ATOM     21  C2  CHE B   05     16.100  67.216   5.347  0.00  0.00    +0.049 C 
ATOM     22  C3  CHE B   05     15.587  67.571   4.460  0.00  0.00    +0.015 C 
ENDBRANCH   7  21
ENDBRANCH   1  10
BRANCH   5  23
ATOM     23  C17 CHE B   05     22.592  70.271   4.803  0.00  0.00    +0.000 A 
ATOM     24  C18 CHE B   05     23.145  69.490   7.671  0.00  0.00    +0.011 A 
ATOM     25  C19 CHE B   05     24.025  71.548   3.003  0.00  0.00    +0.014 A 
ATOM     26  C20 CHE B   05     24.945  71.935   3.060  0.00  0.00    +0.037 A 
ATOM     27  C27 CHE B   05     25.020  69.940   8.731  0.00  0.00    +0.014 A 
ATOM     28  C28 CHE B   05     23.725  69.734   7.706  0.00  0.00    +0.011 A 
BRANCH  26  29
ATOM     29  C21 CHE B   05     26.268  72.153   4.086  0.00  0.00    +0.244 C 
ATOM     30  O1  CHE B   05     26.265  72.809   3.294  0.00  0.00    -0.270 OA
ATOM     31  N4  CHE B   05     27.384  72.235   5.076  0.00  0.00    -0.308 N 
ATOM     32  H18 CHE B   05     27.060  72.677   4.226  0.00  0.00    +0.149 HD
BRANCH  31  33
ATOM     33  C22 CHE B   05     27.888  74.539   2.789  0.00  0.00    +0.078 C 
ATOM     34  C23 CHE B   05     28.227  73.582   6.725  0.00  0.00    +0.050 C 
ATOM     35  C24 CHE B   05     28.815  73.565   9.970  0.00  0.00    +0.161 C 
ATOM     36  O2  CHE B   05     28.952  76.351   4.632  0.00  0.00    -0.380 OA
ATOM     37  C25 CHE B   05     28.883  73.292  10.939  0.00  0.00    +0.161 C 
ATOM     38  C26 CHE B   05     28.219  74.815   3.989  0.00  0.00    +0.050 C 
ENDBRANCH  31  33
ENDBRANCH  26  29
ENDBRANCH   5  23
TORSDOF 6
ENDMDL
MODEL 8
REMARK VINA RESULT:     -11.5      2.348      4.829
REMARK  Name = dock_mp/CHEMBL5/CHEMBL585505.pdb
REMARK  9 active torsions:
REMARK  status: ('A' for Active; 'I' for Inactive)
REMARK    1  A    between atoms: C1_1  and  C2_2
REMARK    2  A    between atoms: C2_2  and  C3_3
REMARK    3  A    between atoms: C2_2  and  C4_4
REMARK    4  A    between atoms: C5_6  and  C6_7
REMARK    5  A    between atoms: C10_11  and  C11_12
REMARK    6  A    between atoms: C12_14  and  C13_15
REMARK    7  A    between atoms: C16_19  and  C17_20
REMARK    8  A    between atoms: C20_23  and  C21_24
REMARK    9  A    between atoms: N4_26  and  C22_27
REMARK                            x       y       z     vdW  Elec       q    Type
REMARK                         _______ _______ _______ _____ _____    ______ ____
ROOT
ATOM      1  C13 CHE B   05     18.269  68.641   4.167  0.00  0.00    +0.004 A 
ATOM      2  C14 CHE B   05     18.110  67.405   7.974  0.00  0.00    +0.030 A 
ATOM      3  C15 CHE B   05     19.089  68.573   5.181  0.00  0.00    +0.112 A 
ATOM      4  N3  CHE B   05     20.280  68.907   5.267  0.00  0.00    -0.255 NA
ATOM      5  C16 CHE B   05     20.542  69.576   3.377  0.00  0.00    +0.072 A 
ATOM      6  C29 CHE B   05     19.501  69.582   2.347  0.00  0.00    +0.038 A 
ENDROOT
BRANCH   1  10
ATOM      7  C4  CHE B   05     15.767  66.653   9.886  0.00  0.00    +0.111 A 
ATOM      8  N1  CHE B   05     15.318  67.391   8.036  0.00  0.00    -0.230 NA
ATOM      9  C5  CHE B   05     16.246  66.625   9.865  0.00  0.00    +0.115 A 
ATOM     10  C12 CHE B   05     17.243  66.567   9.821  0.00  0.00    +0.076 A 
ATOM     11  N5  CHE B   05     16.924  66.586   9.835  0.00  0.00    -0.341 N 
ATOM     12  H31 CHE B   05     17.513  66.195  10.743  0.00  0.00    +0.167 HD
BRANCH   9  13
ATOM     13  C6  CHE B   05     16.135  67.699   7.065  0.00  0.00    +0.092 A 
ATOM     14  C7  CHE B   05     16.124  68.571   7.417  0.00  0.00    +0.030 A 
ATOM     15  C8  CHE B   05     16.126  68.460   7.372  0.00  0.00    +0.004 A 
ATOM     16  C9  CHE B   05     16.212  66.721   8.825  0.00  0.00    +0.023 A 
ATOM     17  C10 CHE B   05     15.963  68.481   1.993  0.00  0.00    +0.039 A 
ATOM     18  C11 CHE B   05     16.088  66.276   4.336  0.00  0.00    +0.065 C 
ATOM     19  N2  CHE B   05     16.221  65.988   8.530  0.00  0.00    -0.250 NA
ENDBRANCH   9  13
BRANCH   7  21
ATOM     20  C1  CHE B   05     15.901  66.691   9.899  0.00  0.00    +0.015 C 
ATOM     21  C2  CHE B   05     14.938  68.125   6.183  0.00  0.00    +0.049 C 
ATOM     22  C3  CHE B   05     14.563  67.596   7.052  0.00  0.00    +0.015 C 
ENDBRANCH   7  21
ENDBRANCH   1  10
BRANCH   5  23
ATOM     23  C17 CHE B   05     21.910  68.768   7.295  0.00  0.00    +0.000 A 
ATOM     24  C18 CHE B   05     22.148  69.946   4.521  0.00  0.00    +0.011 A 
ATOM     25  C19 CHE B   05     23.522  68.783   9.374  0.00  0.00    +0.014 A 
ATOM     26  C20 CHE B   05     24.427  69.192   9.492  0.00  0.00    +0.037 A 
ATOM     27  C27 CHE B   05     23.890  71.089   3.813  0.00  0.00    +0.014 A 
ATOM     28  C28 CHE B   05     22.719  70.203   4.595  0.00  0.00    +0.011 A 
BRANCH  26  29
ATOM     29  C21 CHE B   05     25.626  70.090   8.713  0.00  0.00    +0.244 C 
ATOM     30  O1  CHE B   05     25.270  69.316   8.138  0.00  0.00    -0.270 OA
ATOM     31  N4  CHE B   05     26.692  70.969   8.146  0.00  0.00    -0.308 N 
ATOM     32  H18 CHE B   05     26.131  70.165   7.901  0.00  0.00    +0.149 HD
BRANCH  31  33
ATOM     33  C22 CHE B   05     25.952  68.694   5.894  0.00  0.00    +0.078 C 
ATOM     34  C23 CHE B   05     28.175  71.991   6.732  0.00  0.00    +0.050 C 
ATOM     35  C24 CHE B   05     30.253  74.552   6.644  0.00  0.00    +0.161 C 
ATOM     36  O2  CHE B   05     27.706  69.774   4.005  0.00  0.00    -0.380 OA
ATOM     37  C25 CHE B   05     30.789  75.372   6.888  0.00  0.00    +0.161 C 
ATOM     38  C26 CHE B   05     26.808  69.583   5.577  0.00  0.00    +0.050 C 
ENDBRANCH  31  33
ENDBRANCH  26  29
ENDBRANCH   5  23
TORSDOF 6
ENDMDL
MODEL 9
REMARK VINA RESULT:     -11.3      1.944      1.984
REMARK  Name = dock_mp/CHEMBL5/CHEMBL585505.pdb
REMARK  9 active torsions:
REMARK  status: ('A' for Active; 'I' for Inactive)
REMARK    1  A    between atoms: C1_1  and  C2_2
REMARK    2  A    between atoms: C2_2  and  C3_3
REMARK    3  A    between atoms: C2_2  and  C4_4
REMARK    4  A    between atoms: C5_6  and  C6_7
REMARK    5  A    between atoms: C10_11  and  C11_12
REMARK    6  A    between atoms: C12_14  and  C13_15
REMARK    7  A    between atoms: C16_19  and  C17_20
REMARK    8  A    between atoms: C20_23  and  C21_24
REMARK    9  A    between atoms: N4_26  and  C22_27
REMARK                            x       y       z     vdW  Elec       q    Type
REMARK                         _______ _______ _______ _____ _____    ______ ____
ROOT
ATOM      1  C13 CHE B   05     19.159  68.818   9.694  0.00  0.00    +0.004 A 
ATOM      2  C14 CHE B   05     17.870  68.365   5.928  0.00  0.00    +0.030 A 
ATOM      3  C15 CHE B   05     19.648  68.981   8.494  0.00  0.00    +0.112 A 
ATOM      4  N3  CHE B   05     20.771  69.363   8.136  0.00  0.00    -0.255 NA
ATOM      5  C16 CHE B   05     21.588  69.648   9.964  0.00  0.00    +0.072 A 
ATOM      6  C29 CHE B   05     20.891  69.415  11.230  0.00  0.00    +0.038 A 
ENDROOT
BRANCH   1  10
ATOM      7  C4  CHE B   05     15.093  67.597   4.704  0.00  0.00    +0.111 A 
ATOM      8  N1  CHE B   05     15.241  67.754   6.735  0.00  0.00    -0.230 NA
ATOM      9  C5  CHE B   05     15.543  67.691   4.567  0.00  0.00    +0.115 A 
ATOM     10  C12 CHE B   05     16.482  67.885   4.282  0.00  0.00    +0.076 A 
ATOM     11  N5  CHE B   05     16.182  67.823   4.374  0.00  0.00    -0.341 N 
ATOM     12  H31 CHE B   05     16.450  67.816   3.254  0.00  0.00    +0.167 HD
BRANCH   9  13
ATOM     13  C6  CHE B   05     16.295  68.035   7.452  0.00  0.00    +0.092 A 
ATOM     14  C7  CHE B   05     15.973  68.917   7.414  0.00  0.00    +0.030 A 
ATOM     15  C8  CHE B   05     16.014  68.805   7.419  0.00  0.00    +0.004 A 
ATOM     16  C9  CHE B   05     15.891  67.540   5.540  0.00  0.00    +0.023 A 
ATOM     17  C10 CHE B   05     17.922  67.590  12.302  0.00  0.00    +0.039 A 
ATOM     18  C11 CHE B   05     17.589  66.101   9.467  0.00  0.00    +0.065 C 
ATOM     19  N2  CHE B   05     16.163  66.798   5.572  0.00  0.00    -0.250 NA
ENDBRANCH   9  13
BRANCH   7  21
ATOM     20  C1  CHE B   05     15.193  67.685   4.662  0.00  0.00    +0.015 C 
ATOM     21  C2  CHE B   05     15.454  67.924   8.745  0.00  0.00    +0.049 C 
ATOM     22  C3  CHE B   05     14.929  67.460   7.917  0.00  0.00    +0.015 C 
ENDBRANCH   7  21
ENDBRANCH   1  10
BRANCH   5  23
ATOM     23  C17 CHE B   05     21.740  69.686   5.738  0.00  0.00    +0.000 A 
ATOM     24  C18 CHE B   05     22.958  69.787   8.503  0.00  0.00    +0.011 A 
ATOM     25  C19 CHE B   05     22.793  69.799   3.329  0.00  0.00    +0.014 A 
ATOM     26  C20 CHE B   05     23.745  69.892   3.040  0.00  0.00    +0.037 A 
ATOM     27  C27 CHE B   05     25.113  69.991   8.894  0.00  0.00    +0.014 A 
ATOM     28  C28 CHE B   05     23.558  69.845   8.321  0.00  0.00    +0.011 A 
BRANCH  26  29
ATOM     29  C21 CHE B   05     25.329  70.040   3.604  0.00  0.00    +0.244 C 
ATOM     30  O1  CHE B   05     25.089  70.749   2.899  0.00  0.00    -0.270 OA
ATOM     31  N4  CHE B   05     26.704  70.055   4.190  0.00  0.00    -0.308 N 
ATOM     32  H18 CHE B   05     26.136  70.555   3.520  0.00  0.00    +0.149 HD
BRANCH  31  33
ATOM     33  C22 CHE B   05     26.502  72.514   2.021  0.00  0.00    +0.078 C 
ATOM     34  C23 CHE B   05     28.689  69.337   3.302  0.00  0.00    +0.050 C 
ATOM     35  C24 CHE B   05     30.964  66.988   3.730  0.00  0.00    +0.161 C 
ATOM     36  O2  CHE B   05     28.908  71.819   0.780  0.00  0.00    -0.380 OA
ATOM     37  C25 CHE B   05     31.480  66.192   4.076  0.00  0.00    +0.161 C 
ATOM     38  C26 CHE B   05     27.516  71.745   1.949  0.00  0.00    +0.050 C 
ENDBRANCH  31  33
ENDBRANCH  26  29
ENDBRANCH   5  23
TORSDOF 6
ENDMDL
