MODEL 1
REMARK VINA RESULT:      -8.5      0.000      0.000
REMARK  Name = dock_mp/CHEMBL5/CHEMBL550483.pdb
REMARK  4 active torsions:
REMARK  status: ('A' for Active; 'I' for Inactive)
REMARK    1  A    between atoms: C1_1  and  C2_2
REMARK    2  A    between atoms: C6_6  and  C7_7
REMARK    3  A    between atoms: C8_9  and  N2_10
REMARK    4  A    between atoms: N2_10  and  C9_11
REMARK                            x       y       z     vdW  Elec       q    Type
REMARK                         _______ _______ _______ _____ _____    ______ ____
ROOT
ATOM      1  C7  CHE B   04     16.313  67.638   4.229  0.00  0.00    +0.181 A 
ATOM      2  N1  CHE B   04     17.518  67.941   6.098  0.00  0.00    -0.210 NA
ATOM      3  C8  CHE B   04     22.014  69.069  10.096  0.00  0.00    +0.135 A 
ATOM      4  C16 CHE B   04     15.170  67.355   6.320  0.00  0.00    +0.040 A 
ATOM      5  C17 CHE B   04     20.511  68.695  10.808  0.00  0.00    +0.013 A 
ATOM      6  C18 CHE B   04     18.759  68.256   9.940  0.00  0.00    +0.001 A 
ATOM      7  C19 CHE B   04     18.404  68.166   8.552  0.00  0.00    +0.002 A 
ATOM      8  C20 CHE B   04     16.444  67.673   6.026  0.00  0.00    +0.028 A 
ATOM      9  C21 CHE B   04     21.578  68.959   8.856  0.00  0.00    +0.077 A 
ATOM     10  N4  CHE B   04     15.368  67.401   3.921  0.00  0.00    -0.226 NA
ENDROOT
BRANCH   1  16
ATOM     11  C1  CHE B   04     16.547  69.145   1.405  0.00  0.00    +0.065 C 
ATOM     12  C2  CHE B   04     18.239  69.099   2.498  0.00  0.00    +0.039 A 
ATOM     13  C3  CHE B   04     22.200  69.798   3.472  0.00  0.00    +0.023 A 
ATOM     14  C4  CHE B   04     23.904  69.767   4.542  0.00  0.00    +0.004 A 
ATOM     15  C5  CHE B   04     16.288  68.790   1.950  0.00  0.00    +0.031 A 
ATOM     16  C6  CHE B   04     19.477  68.428   4.550  0.00  0.00    +0.108 A 
ATOM     17  N5  CHE B   04     16.889  68.429   3.014  0.00  0.00    -0.249 NA
ENDBRANCH   1  16
BRANCH   3  18
ATOM     18  N2  CHE B   04     21.490  68.940  11.054  0.00  0.00    -0.299 N 
ATOM     19  H7  CHE B   04     27.052  65.423  13.446  0.00  0.00    +0.154 HD
BRANCH  18  20
ATOM     20  C9  CHE B   04     20.914  68.797  12.109  0.00  0.00    +0.034 A 
ATOM     21  C10 CHE B   04     25.437  61.212  13.866  0.00  0.00    +0.025 A 
ATOM     22  C11 CHE B   04     20.204  68.622  13.407  0.00  0.00    +0.031 A 
ATOM     23  C12 CHE B   04     21.758  65.138  15.025  0.00  0.00    +0.078 A 
ATOM     24  N3  CHE B   04     22.737  62.479  16.578  0.00  0.00    -0.247 NA
ATOM     25  C13 CHE B   04     19.710  66.565  16.543  0.00  0.00    +0.157 A 
ATOM     26  S1  CHE B   04     20.143  66.673  15.750  0.00  0.00    -0.075 S 
ATOM     27  C14 CHE B   04     20.340  67.688  14.274  0.00  0.00    +0.041 A 
ATOM     28  C15 CHE B   04     20.404  68.671  13.041  0.00  0.00    +0.040 A 
ENDBRANCH  18  20
ENDBRANCH   3  18
TORSDOF 3
ENDMDL
MODEL 2
REMARK VINA RESULT:      -8.4      4.317      9.918
REMARK  Name = dock_mp/CHEMBL5/CHEMBL550483.pdb
REMARK  4 active torsions:
REMARK  status: ('A' for Active; 'I' for Inactive)
REMARK    1  A    between atoms: C1_1  and  C2_2
REMARK    2  A    between atoms: C6_6  and  C7_7
REMARK    3  A    between atoms: C8_9  and  N2_10
REMARK    4  A    between atoms: N2_10  and  C9_11
REMARK                            x       y       z     vdW  Elec       q    Type
REMARK                         _______ _______ _______ _____ _____    ______ ____
ROOT
ATOM      1  C7  CHE B   04     20.273  69.030  11.077  0.00  0.00    +0.181 A 
ATOM      2  N1  CHE B   04     20.327  69.157   8.836  0.00  0.00    -0.210 NA
ATOM      3  C8  CHE B   04     18.921  68.920   2.884  0.00  0.00    +0.135 A 
ATOM      4  C16 CHE B   04     22.303  69.831  10.078  0.00  0.00    +0.040 A 
ATOM      5  C17 CHE B   04     20.493  69.487   3.218  0.00  0.00    +0.013 A 
ATOM      6  C18 CHE B   04     21.413  69.744   4.980  0.00  0.00    +0.001 A 
ATOM      7  C19 CHE B   04     20.946  69.507   6.317  0.00  0.00    +0.002 A 
ATOM      8  C20 CHE B   04     21.137  69.424   9.545  0.00  0.00    +0.028 A 
ATOM      9  C21 CHE B   04     18.599  68.739   4.150  0.00  0.00    +0.077 A 
ATOM     10  N4  CHE B   04     20.856  69.207  11.898  0.00  0.00    -0.226 NA
ENDROOT
BRANCH   1  16
ATOM     11  C1  CHE B   04     18.100  68.115  13.255  0.00  0.00    +0.065 C 
ATOM     12  C2  CHE B   04     17.501  67.986  11.335  0.00  0.00    +0.039 A 
ATOM     13  C3  CHE B   04     14.985  67.206   8.143  0.00  0.00    +0.023 A 
ATOM     14  C4  CHE B   04     14.361  67.068   6.235  0.00  0.00    +0.004 A 
ATOM     15  C5  CHE B   04     18.692  68.350  12.963  0.00  0.00    +0.031 A 
ATOM     16  C6  CHE B   04     17.943  68.269   8.902  0.00  0.00    +0.108 A 
ATOM     17  N5  CHE B   04     18.955  68.508  11.727  0.00  0.00    -0.249 NA
ENDBRANCH   1  16
BRANCH   3  18
ATOM     18  N2  CHE B   04     19.852  69.286   2.426  0.00  0.00    -0.299 N 
ATOM     19  H7  CHE B   04     23.443  65.051   6.690  0.00  0.00    +0.154 HD
BRANCH  18  20
ATOM     20  C9  CHE B   04     20.875  69.690   1.922  0.00  0.00    +0.034 A 
ATOM     21  C10 CHE B   04     25.651  67.523   9.241  0.00  0.00    +0.025 A 
ATOM     22  C11 CHE B   04     22.135  70.187   1.302  0.00  0.00    +0.031 A 
ATOM     23  C12 CHE B   04     25.070  69.544   4.155  0.00  0.00    +0.078 A 
ATOM     24  N3  CHE B   04     27.601  69.192   6.133  0.00  0.00    -0.247 NA
ATOM     25  C13 CHE B   04     25.861  70.756   1.617  0.00  0.00    +0.157 A 
ATOM     26  S1  CHE B   04     25.091  70.453   1.996  0.00  0.00    -0.075 S 
ATOM     27  C14 CHE B   04     23.317  70.203   1.795  0.00  0.00    +0.041 A 
ATOM     28  C15 CHE B   04     21.780  70.047   1.477  0.00  0.00    +0.040 A 
ENDBRANCH  18  20
ENDBRANCH   3  18
TORSDOF 3
ENDMDL
MODEL 3
REMARK VINA RESULT:      -8.1      3.821     10.362
REMARK  Name = dock_mp/CHEMBL5/CHEMBL550483.pdb
REMARK  4 active torsions:
REMARK  status: ('A' for Active; 'I' for Inactive)
REMARK    1  A    between atoms: C1_1  and  C2_2
REMARK    2  A    between atoms: C6_6  and  C7_7
REMARK    3  A    between atoms: C8_9  and  N2_10
REMARK    4  A    between atoms: N2_10  and  C9_11
REMARK                            x       y       z     vdW  Elec       q    Type
REMARK                         _______ _______ _______ _____ _____    ______ ____
ROOT
ATOM      1  C7  CHE B   04     23.451  70.324  11.662  0.00  0.00    +0.181 A 
ATOM      2  N1  CHE B   04     21.642  69.704  10.486  0.00  0.00    -0.210 NA
ATOM      3  C8  CHE B   04     16.190  67.510   8.776  0.00  0.00    +0.135 A 
ATOM      4  C16 CHE B   04     23.485  70.757   9.302  0.00  0.00    +0.040 A 
ATOM      5  C17 CHE B   04     17.121  68.161   7.505  0.00  0.00    +0.013 A 
ATOM      6  C18 CHE B   04     18.946  68.989   7.551  0.00  0.00    +0.001 A 
ATOM      7  C19 CHE B   04     19.843  69.205   8.650  0.00  0.00    +0.002 A 
ATOM      8  C20 CHE B   04     22.561  70.192  10.100  0.00  0.00    +0.028 A 
ATOM      9  C21 CHE B   04     17.090  67.757   9.708  0.00  0.00    +0.077 A 
ATOM     10  N4  CHE B   04     24.366  70.764  11.542  0.00  0.00    -0.226 NA
ENDROOT
BRANCH   1  16
ATOM     11  C1  CHE B   04     24.791  68.880  14.197  0.00  0.00    +0.065 C 
ATOM     12  C2  CHE B   04     22.819  68.541  13.956  0.00  0.00    +0.039 A 
ATOM     13  C3  CHE B   04     19.064  67.002  14.763  0.00  0.00    +0.023 A 
ATOM     14  C4  CHE B   04     17.095  66.646  14.547  0.00  0.00    +0.004 A 
ATOM     15  C5  CHE B   04     24.707  69.266  13.619  0.00  0.00    +0.031 A 
ATOM     16  C6  CHE B   04     20.698  68.880  12.700  0.00  0.00    +0.108 A 
ATOM     17  N5  CHE B   04     23.640  69.463  12.950  0.00  0.00    -0.249 NA
ENDBRANCH   1  16
BRANCH   3  18
ATOM     18  N2  CHE B   04     16.205  67.709   7.694  0.00  0.00    -0.299 N 
ATOM     19  H7  CHE B   04     10.715  63.422   6.982  0.00  0.00    +0.154 HD
BRANCH  18  20
ATOM     20  C9  CHE B   04     16.222  67.927   6.504  0.00  0.00    +0.034 A 
ATOM     21  C10 CHE B   04     25.133  69.215   6.592  0.00  0.00    +0.025 A 
ATOM     22  C11 CHE B   04     16.243  68.196   5.038  0.00  0.00    +0.031 A 
ATOM     23  C12 CHE B   04     20.217  68.941   4.133  0.00  0.00    +0.078 A 
ATOM     24  N3  CHE B   04     23.203  69.571   3.071  0.00  0.00    -0.247 NA
ATOM     25  C13 CHE B   04     18.267  69.050   1.960  0.00  0.00    +0.157 A 
ATOM     26  S1  CHE B   04     18.255  68.886   2.855  0.00  0.00    -0.075 S 
ATOM     27  C14 CHE B   04     17.244  68.478   4.291  0.00  0.00    +0.041 A 
ATOM     28  C15 CHE B   04     16.237  68.120   5.451  0.00  0.00    +0.040 A 
ENDBRANCH  18  20
ENDBRANCH   3  18
TORSDOF 3
ENDMDL
MODEL 4
REMARK VINA RESULT:      -6.9      4.209     10.466
REMARK  Name = dock_mp/CHEMBL5/CHEMBL550483.pdb
REMARK  4 active torsions:
REMARK  status: ('A' for Active; 'I' for Inactive)
REMARK    1  A    between atoms: C1_1  and  C2_2
REMARK    2  A    between atoms: C6_6  and  C7_7
REMARK    3  A    between atoms: C8_9  and  N2_10
REMARK    4  A    between atoms: N2_10  and  C9_11
REMARK                            x       y       z     vdW  Elec       q    Type
REMARK                         _______ _______ _______ _____ _____    ______ ____
ROOT
ATOM      1  C7  CHE B   04     26.006  69.211   8.410  0.00  0.00    +0.181 A 
ATOM      2  N1  CHE B   04     23.801  68.967   8.068  0.00  0.00    -0.210 NA
ATOM      3  C8  CHE B   04     17.756  68.337   8.799  0.00  0.00    +0.135 A 
ATOM      4  C16 CHE B   04     25.264  69.079   6.131  0.00  0.00    +0.040 A 
ATOM      5  C17 CHE B   04     18.275  68.355   7.175  0.00  0.00    +0.013 A 
ATOM      6  C18 CHE B   04     20.125  68.536   6.425  0.00  0.00    +0.001 A 
ATOM      7  C19 CHE B   04     21.388  68.686   7.090  0.00  0.00    +0.002 A 
ATOM      8  C20 CHE B   04     24.597  69.034   7.299  0.00  0.00    +0.028 A 
ATOM      9  C21 CHE B   04     18.967  68.478   9.302  0.00  0.00    +0.077 A 
ATOM     10  N4  CHE B   04     26.886  69.293   7.897  0.00  0.00    -0.226 NA
ENDROOT
BRANCH   1  16
ATOM     11  C1  CHE B   04     27.909  68.625  10.927  0.00  0.00    +0.065 C 
ATOM     12  C2  CHE B   04     25.937  68.698  11.338  0.00  0.00    +0.039 A 
ATOM     13  C3  CHE B   04     22.482  68.550  13.610  0.00  0.00    +0.023 A 
ATOM     14  C4  CHE B   04     20.519  68.617  14.048  0.00  0.00    +0.004 A 
ATOM     15  C5  CHE B   04     27.690  68.756  10.276  0.00  0.00    +0.031 A 
ATOM     16  C6  CHE B   04     23.579  69.001  10.603  0.00  0.00    +0.108 A 
ATOM     17  N5  CHE B   04     26.495  68.918   9.862  0.00  0.00    -0.249 NA
ENDBRANCH   1  16
BRANCH   3  18
ATOM     18  N2  CHE B   04     17.416  68.277   7.754  0.00  0.00    -0.299 N 
ATOM     19  H7  CHE B   04     15.546  61.629   8.906  0.00  0.00    +0.154 HD
BRANCH  18  20
ATOM     20  C9  CHE B   04     17.042  68.211   6.605  0.00  0.00    +0.034 A 
ATOM     21  C10 CHE B   04     24.987  71.160   3.563  0.00  0.00    +0.025 A 
ATOM     22  C11 CHE B   04     16.581  68.129   5.191  0.00  0.00    +0.031 A 
ATOM     23  C12 CHE B   04     19.815  69.387   2.927  0.00  0.00    +0.078 A 
ATOM     24  N3  CHE B   04     22.120  70.309   0.859  0.00  0.00    -0.247 NA
ATOM     25  C13 CHE B   04     17.373  68.611   1.524  0.00  0.00    +0.157 A 
ATOM     26  S1  CHE B   04     17.654  68.661   2.388  0.00  0.00    -0.075 S 
ATOM     27  C14 CHE B   04     17.226  68.414   4.122  0.00  0.00    +0.041 A 
ATOM     28  C15 CHE B   04     16.711  68.152   5.590  0.00  0.00    +0.040 A 
ENDBRANCH  18  20
ENDBRANCH   3  18
TORSDOF 3
ENDMDL
