MODEL 1
REMARK VINA RESULT:     -11.8      0.000      0.000
REMARK  Name = dock_mp/CHEMBL5/CHEMBL574413.pdb
REMARK  8 active torsions:
REMARK  status: ('A' for Active; 'I' for Inactive)
REMARK    1  A    between atoms: C1_1  and  C2_2
REMARK    2  A    between atoms: C4_4  and  O1_5
REMARK    3  A    between atoms: O1_5  and  C5_6
REMARK    4  A    between atoms: C8_10  and  N2_11
REMARK    5  A    between atoms: N2_11  and  C9_12
REMARK    6  A    between atoms: C13_16  and  N3_17
REMARK    7  A    between atoms: C20_25  and  C21_26
REMARK    8  A    between atoms: C26_33  and  C27_34
REMARK                            x       y       z     vdW  Elec       q    Type
REMARK                         _______ _______ _______ _____ _____    ______ ____
ROOT
ATOM      1  C5  CHE B   04     18.215  67.579   7.219  0.00  0.00    +0.133 A 
ATOM      2  C6  CHE B   04     20.118  68.195   7.114  0.00  0.00    +0.066 A 
ATOM      3  C7  CHE B   04     25.020  69.594   7.711  0.00  0.00    +0.116 A 
ATOM      4  N1  CHE B   04     18.590  67.208   9.438  0.00  0.00    -0.240 NA
ATOM      5  C8  CHE B   04     24.231  69.126   8.722  0.00  0.00    +0.126 A 
ATOM      6  C19 CHE B   04     19.331  67.724   8.144  0.00  0.00    +0.090 A 
ENDROOT
BRANCH   5   7
ATOM      7  N2  CHE B   04     23.485  68.613   9.996  0.00  0.00    -0.299 N 
ATOM      8  H7  CHE B   04     24.099  66.370  11.893  0.00  0.00    +0.154 HD
BRANCH   7   9
ATOM      9  C9  CHE B   04     22.143  70.341   9.362  0.00  0.00    +0.034 A 
ATOM     10  C10 CHE B   04     24.276  64.372  14.249  0.00  0.00    +0.023 A 
ATOM     11  C11 CHE B   04     21.529  70.519   9.808  0.00  0.00    +0.004 A 
ATOM     12  C12 CHE B   04     21.981  66.376  14.308  0.00  0.00    +0.023 A 
ATOM     13  C13 CHE B   04     21.534  67.175  13.828  0.00  0.00    +0.032 A 
ATOM     14  C18 CHE B   04     21.385  69.892  10.717  0.00  0.00    +0.046 A 
BRANCH  13  15
ATOM     15  N3  CHE B   04     21.212  65.262  16.475  0.00  0.00    -0.325 N 
ATOM     16  C14 CHE B   04     18.742  68.285  13.195  0.00  0.00    +0.133 C 
ATOM     17  C15 CHE B   04     18.411  66.372  15.846  0.00  0.00    +0.178 C 
ATOM     18  O2  CHE B   04     19.063  65.145  17.284  0.00  0.00    -0.377 OA
ATOM     19  C16 CHE B   04     18.033  68.878  12.620  0.00  0.00    +0.178 C 
ATOM     20  C17 CHE B   04     19.945  67.088  14.426  0.00  0.00    +0.133 C 
ENDBRANCH  13  15
ENDBRANCH   7   9
ENDBRANCH   5   7
BRANCH   1  21
ATOM     21  O1  CHE B   04     23.667  69.682   5.385  0.00  0.00    -0.454 OA
BRANCH  21  25
ATOM     22  C1  CHE B   04     18.431  68.913   3.682  0.00  0.00    +0.046 C 
ATOM     23  C2  CHE B   04     19.402  69.159   3.634  0.00  0.00    -0.026 A 
ATOM     24  C3  CHE B   04     17.713  68.360   5.030  0.00  0.00    +0.053 A 
ATOM     25  C4  CHE B   04     16.764  68.087   5.192  0.00  0.00    +0.156 A 
ATOM     26  C20 CHE B   04     23.246  70.193   3.224  0.00  0.00    +0.131 A 
ATOM     27  N5  CHE B   04     16.339  68.603   3.012  0.00  0.00    -0.246 NA
ATOM     28  C26 CHE B   04     23.973  70.735   1.924  0.00  0.00    +0.042 A 
ATOM     29  C27 CHE B   04     16.086  68.910   1.711  0.00  0.00    +0.066 C 
BRANCH  26  30
ATOM     30  C21 CHE B   04     16.546  68.352   4.073  0.00  0.00    +0.093 A 
ATOM     31  C22 CHE B   04     16.800  67.343   3.870  0.00  0.00    +0.030 A 
ATOM     32  C23 CHE B   04     15.846  67.068   3.989  0.00  0.00    +0.004 A 
ATOM     33  C24 CHE B   04     23.241  70.212   3.228  0.00  0.00    +0.020 A 
ATOM     34  C25 CHE B   04     23.950  71.458   3.305  0.00  0.00    +0.111 A 
ATOM     35  N4  CHE B   04     23.957  71.430   3.299  0.00  0.00    -0.253 NA
ENDBRANCH  26  30
ENDBRANCH  21  25
ENDBRANCH   1  21
TORSDOF 6
ENDMDL
MODEL 2
REMARK VINA RESULT:     -10.8      3.418     10.037
REMARK  Name = dock_mp/CHEMBL5/CHEMBL574413.pdb
REMARK  8 active torsions:
REMARK  status: ('A' for Active; 'I' for Inactive)
REMARK    1  A    between atoms: C1_1  and  C2_2
REMARK    2  A    between atoms: C4_4  and  O1_5
REMARK    3  A    between atoms: O1_5  and  C5_6
REMARK    4  A    between atoms: C8_10  and  N2_11
REMARK    5  A    between atoms: N2_11  and  C9_12
REMARK    6  A    between atoms: C13_16  and  N3_17
REMARK    7  A    between atoms: C20_25  and  C21_26
REMARK    8  A    between atoms: C26_33  and  C27_34
REMARK                            x       y       z     vdW  Elec       q    Type
REMARK                         _______ _______ _______ _____ _____    ______ ____
ROOT
ATOM      1  C5  CHE B   04     21.364  69.991   9.936  0.00  0.00    +0.133 A 
ATOM      2  C6  CHE B   04     20.410  69.578   8.224  0.00  0.00    +0.066 A 
ATOM      3  C7  CHE B   04     18.752  68.662   3.454  0.00  0.00    +0.116 A 
ATOM      4  N1  CHE B   04     23.236  70.297   8.672  0.00  0.00    -0.240 NA
ATOM      5  C8  CHE B   04     20.038  69.001   3.764  0.00  0.00    +0.126 A 
ATOM      6  C19 CHE B   04     21.712  69.919   8.523  0.00  0.00    +0.090 A 
ENDROOT
BRANCH   5   7
ATOM      7  N2  CHE B   04     21.546  69.376   3.924  0.00  0.00    -0.299 N 
ATOM      8  H7  CHE B   04     23.399  69.206   6.278  0.00  0.00    +0.154 HD
BRANCH   7   9
ATOM      9  C9  CHE B   04     21.185  69.914   1.740  0.00  0.00    +0.034 A 
ATOM     10  C10 CHE B   04     25.814  67.691   7.879  0.00  0.00    +0.023 A 
ATOM     11  C11 CHE B   04     21.789  69.901   1.248  0.00  0.00    +0.004 A 
ATOM     12  C12 CHE B   04     26.391  68.208   4.932  0.00  0.00    +0.023 A 
ATOM     13  C13 CHE B   04     25.990  68.482   4.020  0.00  0.00    +0.032 A 
ATOM     14  C18 CHE B   04     22.772  69.614   1.686  0.00  0.00    +0.046 A 
BRANCH  13  15
ATOM     15  N3  CHE B   04     28.830  67.624   5.423  0.00  0.00    -0.325 N 
ATOM     16  C14 CHE B   04     26.549  68.803   1.018  0.00  0.00    +0.133 C 
ATOM     17  C15 CHE B   04     29.396  67.944   2.414  0.00  0.00    +0.178 C 
ATOM     18  O2  CHE B   04     30.583  67.444   3.945  0.00  0.00    -0.377 OA
ATOM     19  C16 CHE B   04     26.268  69.021  -0.011  0.00  0.00    +0.178 C 
ATOM     20  C17 CHE B   04     27.286  68.349   2.927  0.00  0.00    +0.133 C 
ENDBRANCH  13  15
ENDBRANCH   7   9
ENDBRANCH   5   7
BRANCH   1  21
ATOM     21  O1  CHE B   04     17.221  68.541   5.665  0.00  0.00    -0.454 OA
BRANCH  21  25
ATOM     22  C1  CHE B   04     18.465  67.802  11.033  0.00  0.00    +0.046 C 
ATOM     23  C2  CHE B   04     17.957  67.721  10.172  0.00  0.00    -0.026 A 
ATOM     24  C3  CHE B   04     19.841  68.652  11.183  0.00  0.00    +0.053 A 
ATOM     25  C4  CHE B   04     20.426  68.802  11.981  0.00  0.00    +0.156 A 
ATOM     26  C20 CHE B   04     15.778  67.264   6.847  0.00  0.00    +0.131 A 
ATOM     27  N5  CHE B   04     18.971  67.514  13.174  0.00  0.00    -0.246 NA
ATOM     28  C26 CHE B   04     14.434  66.443   6.671  0.00  0.00    +0.042 A 
ATOM     29  C27 CHE B   04     18.103  66.746  13.885  0.00  0.00    +0.066 C 
BRANCH  26  30
ATOM     30  C21 CHE B   04     19.679  68.141  12.593  0.00  0.00    +0.093 A 
ATOM     31  C22 CHE B   04     19.126  69.013  12.832  0.00  0.00    +0.030 A 
ATOM     32  C23 CHE B   04     19.677  69.149  13.655  0.00  0.00    +0.004 A 
ATOM     33  C24 CHE B   04     15.788  67.248   6.843  0.00  0.00    +0.020 A 
ATOM     34  C25 CHE B   04     15.770  66.272   5.789  0.00  0.00    +0.111 A 
ATOM     35  N4  CHE B   04     15.754  66.297   5.796  0.00  0.00    -0.253 NA
ENDBRANCH  26  30
ENDBRANCH  21  25
ENDBRANCH   1  21
TORSDOF 6
ENDMDL
MODEL 3
REMARK VINA RESULT:     -10.7      3.381      8.399
REMARK  Name = dock_mp/CHEMBL5/CHEMBL574413.pdb
REMARK  8 active torsions:
REMARK  status: ('A' for Active; 'I' for Inactive)
REMARK    1  A    between atoms: C1_1  and  C2_2
REMARK    2  A    between atoms: C4_4  and  O1_5
REMARK    3  A    between atoms: O1_5  and  C5_6
REMARK    4  A    between atoms: C8_10  and  N2_11
REMARK    5  A    between atoms: N2_11  and  C9_12
REMARK    6  A    between atoms: C13_16  and  N3_17
REMARK    7  A    between atoms: C20_25  and  C21_26
REMARK    8  A    between atoms: C26_33  and  C27_34
REMARK                            x       y       z     vdW  Elec       q    Type
REMARK                         _______ _______ _______ _____ _____    ______ ____
ROOT
ATOM      1  C5  CHE B   04     20.714  69.521   4.307  0.00  0.00    +0.133 A 
ATOM      2  C6  CHE B   04     20.687  69.155   6.276  0.00  0.00    +0.066 A 
ATOM      3  C7  CHE B   04     21.439  68.553  11.318  0.00  0.00    +0.116 A 
ATOM      4  N1  CHE B   04     22.825  70.327   4.613  0.00  0.00    -0.240 NA
ATOM      5  C8  CHE B   04     22.364  69.084  10.465  0.00  0.00    +0.126 A 
ATOM      6  C19 CHE B   04     21.631  69.693   5.426  0.00  0.00    +0.090 A 
ENDROOT
BRANCH   5   7
ATOM      7  N2  CHE B   04     23.540  69.711   9.649  0.00  0.00    -0.299 N 
ATOM      8  H7  CHE B   04     24.403  69.339   6.799  0.00  0.00    +0.154 HD
BRANCH   7   9
ATOM      9  C9  CHE B   04     23.836  70.697  11.681  0.00  0.00    +0.034 A 
ATOM     10  C10 CHE B   04     26.161  68.767   4.269  0.00  0.00    +0.023 A 
ATOM     11  C11 CHE B   04     24.502  71.079  11.817  0.00  0.00    +0.004 A 
ATOM     12  C12 CHE B   04     27.491  70.346   6.512  0.00  0.00    +0.023 A 
ATOM     13  C13 CHE B   04     27.396  70.699   7.478  0.00  0.00    +0.032 A 
ATOM     14  C18 CHE B   04     25.238  71.093  10.981  0.00  0.00    +0.046 A 
BRANCH  13  15
ATOM     15  N3  CHE B   04     29.484  70.673   4.947  0.00  0.00    -0.325 N 
ATOM     16  C14 CHE B   04     28.273  72.991   9.324  0.00  0.00    +0.133 C 
ATOM     17  C15 CHE B   04     30.368  72.972   6.793  0.00  0.00    +0.178 C 
ATOM     18  O2  CHE B   04     31.106  72.300   5.060  0.00  0.00    -0.377 OA
ATOM     19  C16 CHE B   04     28.193  73.617  10.211  0.00  0.00    +0.178 C 
ATOM     20  C17 CHE B   04     28.595  71.901   7.562  0.00  0.00    +0.133 C 
ENDBRANCH  13  15
ENDBRANCH   7   9
ENDBRANCH   5   7
BRANCH   1  21
ATOM     21  O1  CHE B   04     19.189  67.871  10.005  0.00  0.00    -0.454 OA
BRANCH  21  25
ATOM     22  C1  CHE B   04     17.166  68.395   4.853  0.00  0.00    +0.046 C 
ATOM     23  C2  CHE B   04     17.199  68.139   5.823  0.00  0.00    -0.026 A 
ATOM     24  C3  CHE B   04     18.378  69.159   4.088  0.00  0.00    +0.053 A 
ATOM     25  C4  CHE B   04     18.455  69.460   3.137  0.00  0.00    +0.156 A 
ATOM     26  C20 CHE B   04     17.120  67.028   9.666  0.00  0.00    +0.131 A 
ATOM     27  N5  CHE B   04     16.368  68.609   2.794  0.00  0.00    -0.246 NA
ATOM     28  C26 CHE B   04     15.953  66.283  10.438  0.00  0.00    +0.042 A 
ATOM     29  C27 CHE B   04     15.123  68.102   2.590  0.00  0.00    +0.066 C 
BRANCH  26  30
ATOM     30  C21 CHE B   04     17.384  69.023   2.961  0.00  0.00    +0.093 A 
ATOM     31  C22 CHE B   04     17.795  68.082   2.700  0.00  0.00    +0.030 A 
ATOM     32  C23 CHE B   04     17.838  68.355   1.739  0.00  0.00    +0.004 A 
ATOM     33  C24 CHE B   04     17.112  67.046   9.670  0.00  0.00    +0.020 A 
ATOM     34  C25 CHE B   04     16.674  67.678  10.882  0.00  0.00    +0.111 A 
ATOM     35  N4  CHE B   04     16.686  67.652  10.875  0.00  0.00    -0.253 NA
ENDBRANCH  26  30
ENDBRANCH  21  25
ENDBRANCH   1  21
TORSDOF 6
ENDMDL
MODEL 4
REMARK VINA RESULT:     -10.7      1.705      2.047
REMARK  Name = dock_mp/CHEMBL5/CHEMBL574413.pdb
REMARK  8 active torsions:
REMARK  status: ('A' for Active; 'I' for Inactive)
REMARK    1  A    between atoms: C1_1  and  C2_2
REMARK    2  A    between atoms: C4_4  and  O1_5
REMARK    3  A    between atoms: O1_5  and  C5_6
REMARK    4  A    between atoms: C8_10  and  N2_11
REMARK    5  A    between atoms: N2_11  and  C9_12
REMARK    6  A    between atoms: C13_16  and  N3_17
REMARK    7  A    between atoms: C20_25  and  C21_26
REMARK    8  A    between atoms: C26_33  and  C27_34
REMARK                            x       y       z     vdW  Elec       q    Type
REMARK                         _______ _______ _______ _____ _____    ______ ____
ROOT
ATOM      1  C5  CHE B   04     18.759  68.763   8.356  0.00  0.00    +0.133 A 
ATOM      2  C6  CHE B   04     20.577  68.995   7.546  0.00  0.00    +0.066 A 
ATOM      3  C7  CHE B   04     25.532  69.248   6.234  0.00  0.00    +0.116 A 
ATOM      4  N1  CHE B   04     19.822  67.923  10.190  0.00  0.00    -0.240 NA
ATOM      5  C8  CHE B   04     25.083  68.769   7.431  0.00  0.00    +0.126 A 
ATOM      6  C19 CHE B   04     20.136  68.508   8.760  0.00  0.00    +0.090 A 
ENDROOT
BRANCH   5   7
ATOM      7  N2  CHE B   04     24.759  68.190   8.846  0.00  0.00    -0.299 N 
ATOM      8  H7  CHE B   04     25.539  65.611  10.166  0.00  0.00    +0.154 HD
BRANCH   7   9
ATOM      9  C9  CHE B   04     23.665  70.187   8.922  0.00  0.00    +0.034 A 
ATOM     10  C10 CHE B   04     26.052  63.223  12.064  0.00  0.00    +0.023 A 
ATOM     11  C11 CHE B   04     23.288  70.381   9.577  0.00  0.00    +0.004 A 
ATOM     12  C12 CHE B   04     24.373  65.520  13.156  0.00  0.00    +0.023 A 
ATOM     13  C13 CHE B   04     23.964  66.448  12.955  0.00  0.00    +0.032 A 
ATOM     14  C18 CHE B   04     23.334  69.640  10.407  0.00  0.00    +0.046 A 
BRANCH  13  15
ATOM     15  N3  CHE B   04     24.170  64.190  15.328  0.00  0.00    -0.325 N 
ATOM     16  C14 CHE B   04     21.422  68.080  13.507  0.00  0.00    +0.133 C 
ATOM     17  C15 CHE B   04     21.621  65.823  15.887  0.00  0.00    +0.178 C 
ATOM     18  O2  CHE B   04     22.451  64.282  16.854  0.00  0.00    -0.377 OA
ATOM     19  C16 CHE B   04     20.701  68.868  13.296  0.00  0.00    +0.178 C 
ATOM     20  C17 CHE B   04     22.693  66.515  14.083  0.00  0.00    +0.133 C 
ENDBRANCH  13  15
ENDBRANCH   7   9
ENDBRANCH   5   7
BRANCH   1  21
ATOM     21  O1  CHE B   04     23.484  70.033   4.672  0.00  0.00    -0.454 OA
BRANCH  21  25
ATOM     22  C1  CHE B   04     18.130  68.539   4.626  0.00  0.00    +0.046 C 
ATOM     23  C2  CHE B   04     19.040  68.765   4.270  0.00  0.00    -0.026 A 
ATOM     24  C3  CHE B   04     17.759  68.556   6.208  0.00  0.00    +0.053 A 
ATOM     25  C4  CHE B   04     16.896  68.351   6.672  0.00  0.00    +0.156 A 
ATOM     26  C20 CHE B   04     22.589  69.629   2.637  0.00  0.00    +0.131 A 
ATOM     27  N5  CHE B   04     15.993  67.943   4.619  0.00  0.00    -0.246 NA
ATOM     28  C26 CHE B   04     22.980  69.621   1.101  0.00  0.00    +0.042 A 
ATOM     29  C27 CHE B   04     15.454  67.700   3.394  0.00  0.00    +0.066 C 
BRANCH  26  30
ATOM     30  C21 CHE B   04     16.433  68.142   5.619  0.00  0.00    +0.093 A 
ATOM     31  C22 CHE B   04     16.744  67.137   5.753  0.00  0.00    +0.030 A 
ATOM     32  C23 CHE B   04     15.869  66.913   6.181  0.00  0.00    +0.004 A 
ATOM     33  C24 CHE B   04     22.583  69.648   2.634  0.00  0.00    +0.020 A 
ATOM     34  C25 CHE B   04     23.159  70.839   2.077  0.00  0.00    +0.111 A 
ATOM     35  N4  CHE B   04     23.168  70.811   2.081  0.00  0.00    -0.253 NA
ENDBRANCH  26  30
ENDBRANCH  21  25
ENDBRANCH   1  21
TORSDOF 6
ENDMDL
MODEL 5
REMARK VINA RESULT:     -10.5      3.342      8.808
REMARK  Name = dock_mp/CHEMBL5/CHEMBL574413.pdb
REMARK  8 active torsions:
REMARK  status: ('A' for Active; 'I' for Inactive)
REMARK    1  A    between atoms: C1_1  and  C2_2
REMARK    2  A    between atoms: C4_4  and  O1_5
REMARK    3  A    between atoms: O1_5  and  C5_6
REMARK    4  A    between atoms: C8_10  and  N2_11
REMARK    5  A    between atoms: N2_11  and  C9_12
REMARK    6  A    between atoms: C13_16  and  N3_17
REMARK    7  A    between atoms: C20_25  and  C21_26
REMARK    8  A    between atoms: C26_33  and  C27_34
REMARK                            x       y       z     vdW  Elec       q    Type
REMARK                         _______ _______ _______ _____ _____    ______ ____
ROOT
ATOM      1  C5  CHE B   04     20.726  69.662   4.819  0.00  0.00    +0.133 A 
ATOM      2  C6  CHE B   04     20.963  69.564   6.805  0.00  0.00    +0.066 A 
ATOM      3  C7  CHE B   04     22.382  69.635  11.738  0.00  0.00    +0.116 A 
ATOM      4  N1  CHE B   04     22.853  70.479   4.732  0.00  0.00    -0.240 NA
ATOM      5  C8  CHE B   04     23.182  70.038  10.707  0.00  0.00    +0.126 A 
ATOM      6  C19 CHE B   04     21.782  69.973   5.774  0.00  0.00    +0.090 A 
ENDROOT
BRANCH   5   7
ATOM      7  N2  CHE B   04     24.234  70.537   9.665  0.00  0.00    -0.299 N 
ATOM      8  H7  CHE B   04     25.777  73.104   9.469  0.00  0.00    +0.154 HD
BRANCH   7   9
ATOM      9  C9  CHE B   04     23.734  68.475   8.837  0.00  0.00    +0.034 A 
ATOM     10  C10 CHE B   04     28.070  75.196   9.134  0.00  0.00    +0.023 A 
ATOM     11  C11 CHE B   04     24.178  68.185   8.264  0.00  0.00    +0.004 A 
ATOM     12  C12 CHE B   04     28.258  72.685   7.417  0.00  0.00    +0.023 A 
ATOM     13  C13 CHE B   04     27.846  71.759   7.212  0.00  0.00    +0.032 A 
ATOM     14  C18 CHE B   04     25.016  68.831   7.919  0.00  0.00    +0.046 A 
BRANCH  13  15
ATOM     15  N3  CHE B   04     30.281  73.751   6.278  0.00  0.00    -0.325 N 
ATOM     16  C14 CHE B   04     27.043  70.125   4.739  0.00  0.00    +0.133 C 
ATOM     17  C15 CHE B   04     29.481  72.116   3.796  0.00  0.00    +0.178 C 
ATOM     18  O2  CHE B   04     30.868  73.532   4.065  0.00  0.00    -0.377 OA
ATOM     19  C16 CHE B   04     26.454  69.378   4.210  0.00  0.00    +0.178 C 
ATOM     20  C17 CHE B   04     28.279  71.597   5.576  0.00  0.00    +0.133 C 
ENDBRANCH  13  15
ENDBRANCH   7   9
ENDBRANCH   5   7
BRANCH   1  21
ATOM     21  O1  CHE B   04     19.983  68.808  10.838  0.00  0.00    -0.454 OA
BRANCH  21  25
ATOM     22  C1  CHE B   04     17.403  68.255   5.945  0.00  0.00    +0.046 C 
ATOM     23  C2  CHE B   04     17.557  68.183   6.934  0.00  0.00    -0.026 A 
ATOM     24  C3  CHE B   04     18.463  68.940   4.922  0.00  0.00    +0.053 A 
ATOM     25  C4  CHE B   04     18.417  69.066   3.931  0.00  0.00    +0.156 A 
ATOM     26  C20 CHE B   04     17.966  67.791  10.894  0.00  0.00    +0.131 A 
ATOM     27  N5  CHE B   04     16.382  68.040   3.987  0.00  0.00    -0.246 NA
ATOM     28  C26 CHE B   04     16.950  67.129  11.916  0.00  0.00    +0.042 A 
ATOM     29  C27 CHE B   04     15.168  67.428   4.021  0.00  0.00    +0.066 C 
BRANCH  26  30
ATOM     30  C21 CHE B   04     17.373  68.540   3.960  0.00  0.00    +0.093 A 
ATOM     31  C22 CHE B   04     17.900  67.631   3.820  0.00  0.00    +0.030 A 
ATOM     32  C23 CHE B   04     17.822  67.727   2.827  0.00  0.00    +0.004 A 
ATOM     33  C24 CHE B   04     17.956  67.808  10.897  0.00  0.00    +0.020 A 
ATOM     34  C25 CHE B   04     17.526  68.586  12.024  0.00  0.00    +0.111 A 
ATOM     35  N4  CHE B   04     17.541  68.560  12.020  0.00  0.00    -0.253 NA
ENDBRANCH  26  30
ENDBRANCH  21  25
ENDBRANCH   1  21
TORSDOF 6
ENDMDL
MODEL 6
REMARK VINA RESULT:     -10.2      3.469      9.245
REMARK  Name = dock_mp/CHEMBL5/CHEMBL574413.pdb
REMARK  8 active torsions:
REMARK  status: ('A' for Active; 'I' for Inactive)
REMARK    1  A    between atoms: C1_1  and  C2_2
REMARK    2  A    between atoms: C4_4  and  O1_5
REMARK    3  A    between atoms: O1_5  and  C5_6
REMARK    4  A    between atoms: C8_10  and  N2_11
REMARK    5  A    between atoms: N2_11  and  C9_12
REMARK    6  A    between atoms: C13_16  and  N3_17
REMARK    7  A    between atoms: C20_25  and  C21_26
REMARK    8  A    between atoms: C26_33  and  C27_34
REMARK                            x       y       z     vdW  Elec       q    Type
REMARK                         _______ _______ _______ _____ _____    ______ ____
ROOT
ATOM      1  C5  CHE B   04     17.090  67.946   4.128  0.00  0.00    +0.133 A 
ATOM      2  C6  CHE B   04     18.069  68.095   5.869  0.00  0.00    +0.066 A 
ATOM      3  C7  CHE B   04     21.308  68.517   9.829  0.00  0.00    +0.116 A 
ATOM      4  N1  CHE B   04     19.128  68.077   3.115  0.00  0.00    -0.240 NA
ATOM      5  C8  CHE B   04     21.699  68.499   8.520  0.00  0.00    +0.126 A 
ATOM      6  C19 CHE B   04     18.478  68.078   4.552  0.00  0.00    +0.090 A 
ENDROOT
BRANCH   5   7
ATOM      7  N2  CHE B   04     22.332  68.497   7.092  0.00  0.00    -0.299 N 
ATOM      8  H7  CHE B   04     24.682  67.014   5.959  0.00  0.00    +0.154 HD
BRANCH   7   9
ATOM      9  C9  CHE B   04     20.616  69.969   6.815  0.00  0.00    +0.034 A 
ATOM     10  C10 CHE B   04     27.565  66.614   4.689  0.00  0.00    +0.023 A 
ATOM     11  C11 CHE B   04     20.633  70.450   6.201  0.00  0.00    +0.004 A 
ATOM     12  C12 CHE B   04     25.875  68.833   3.460  0.00  0.00    +0.023 A 
ATOM     13  C13 CHE B   04     25.011  69.394   3.546  0.00  0.00    +0.032 A 
ATOM     14  C18 CHE B   04     21.512  70.353   5.525  0.00  0.00    +0.046 A 
BRANCH  13  15
ATOM     15  N3  CHE B   04     27.647  69.014   1.628  0.00  0.00    -0.325 N 
ATOM     16  C14 CHE B   04     22.611  69.809   1.676  0.00  0.00    +0.133 C 
ATOM     17  C15 CHE B   04     25.245  69.429  -0.251  0.00  0.00    +0.178 C 
ATOM     18  O2  CHE B   04     27.187  69.129  -0.622  0.00  0.00    -0.377 OA
ATOM     19  C16 CHE B   04     21.558  69.979   1.461  0.00  0.00    +0.178 C 
ATOM     20  C17 CHE B   04     24.671  69.479   1.882  0.00  0.00    +0.133 C 
ENDBRANCH  13  15
ENDBRANCH   7   9
ENDBRANCH   5   7
BRANCH   1  21
ATOM     21  O1  CHE B   04     18.633  68.302  10.045  0.00  0.00    -0.454 OA
BRANCH  21  25
ATOM     22  C1  CHE B   04     14.993  65.945   6.566  0.00  0.00    +0.046 C 
ATOM     23  C2  CHE B   04     15.429  66.194   7.435  0.00  0.00    -0.026 A 
ATOM     24  C3  CHE B   04     15.537  66.441   5.118  0.00  0.00    +0.053 A 
ATOM     25  C4  CHE B   04     15.187  66.258   4.198  0.00  0.00    +0.156 A 
ATOM     26  C20 CHE B   04     17.006  67.063  11.007  0.00  0.00    +0.131 A 
ATOM     27  N5  CHE B   04     13.546  65.008   5.169  0.00  0.00    -0.246 NA
ATOM     28  C26 CHE B   04     16.499  66.594  12.434  0.00  0.00    +0.042 A 
ATOM     29  C27 CHE B   04     12.567  64.263   5.749  0.00  0.00    +0.066 C 
BRANCH  26  30
ATOM     30  C21 CHE B   04     14.345  65.617   4.697  0.00  0.00    +0.093 A 
ATOM     31  C22 CHE B   04     14.871  64.696   4.689  0.00  0.00    +0.030 A 
ATOM     32  C23 CHE B   04     14.497  64.479   3.787  0.00  0.00    +0.004 A 
ATOM     33  C24 CHE B   04     16.996  67.081  11.008  0.00  0.00    +0.020 A 
ATOM     34  C25 CHE B   04     16.864  68.184  11.916  0.00  0.00    +0.111 A 
ATOM     35  N4  CHE B   04     16.879  68.158  11.916  0.00  0.00    -0.253 NA
ENDBRANCH  26  30
ENDBRANCH  21  25
ENDBRANCH   1  21
TORSDOF 6
ENDMDL
MODEL 7
REMARK VINA RESULT:     -10.2      4.089      8.218
REMARK  Name = dock_mp/CHEMBL5/CHEMBL574413.pdb
REMARK  8 active torsions:
REMARK  status: ('A' for Active; 'I' for Inactive)
REMARK    1  A    between atoms: C1_1  and  C2_2
REMARK    2  A    between atoms: C4_4  and  O1_5
REMARK    3  A    between atoms: O1_5  and  C5_6
REMARK    4  A    between atoms: C8_10  and  N2_11
REMARK    5  A    between atoms: N2_11  and  C9_12
REMARK    6  A    between atoms: C13_16  and  N3_17
REMARK    7  A    between atoms: C20_25  and  C21_26
REMARK    8  A    between atoms: C26_33  and  C27_34
REMARK                            x       y       z     vdW  Elec       q    Type
REMARK                         _______ _______ _______ _____ _____    ______ ____
ROOT
ATOM      1  C5  CHE B   04     20.938  69.677   8.616  0.00  0.00    +0.133 A 
ATOM      2  C6  CHE B   04     21.047  69.730   6.616  0.00  0.00    +0.066 A 
ATOM      3  C7  CHE B   04     22.186  70.036   1.621  0.00  0.00    +0.116 A 
ATOM      4  N1  CHE B   04     23.174  70.124   8.624  0.00  0.00    -0.240 NA
ATOM      5  C8  CHE B   04     23.098  70.203   2.624  0.00  0.00    +0.126 A 
ATOM      6  C19 CHE B   04     21.978  69.901   7.620  0.00  0.00    +0.090 A 
ENDROOT
BRANCH   5   7
ATOM      7  N2  CHE B   04     24.274  70.422   3.628  0.00  0.00    -0.299 N 
ATOM      8  H7  CHE B   04     25.182  68.833   6.007  0.00  0.00    +0.154 HD
BRANCH   7   9
ATOM      9  C9  CHE B   04     24.528  72.217   2.250  0.00  0.00    +0.034 A 
ATOM     10  C10 CHE B   04     26.510  67.729   8.574  0.00  0.00    +0.023 A 
ATOM     11  C11 CHE B   04     25.097  72.729   2.404  0.00  0.00    +0.004 A 
ATOM     12  C12 CHE B   04     27.645  70.318   7.434  0.00  0.00    +0.023 A 
ATOM     13  C13 CHE B   04     27.564  71.029   6.689  0.00  0.00    +0.032 A 
ATOM     14  C18 CHE B   04     25.724  72.509   3.297  0.00  0.00    +0.046 A 
BRANCH  13  15
ATOM     15  N3  CHE B   04     29.345  70.279   9.341  0.00  0.00    -0.325 N 
ATOM     16  C14 CHE B   04     28.062  74.002   6.101  0.00  0.00    +0.133 C 
ATOM     17  C15 CHE B   04     29.848  73.260   8.757  0.00  0.00    +0.178 C 
ATOM     18  O2  CHE B   04     30.550  72.048  10.185  0.00  0.00    -0.377 OA
ATOM     19  C16 CHE B   04     27.925  74.923   5.538  0.00  0.00    +0.178 C 
ATOM     20  C17 CHE B   04     28.455  72.336   7.313  0.00  0.00    +0.133 C 
ENDBRANCH  13  15
ENDBRANCH   7   9
ENDBRANCH   5   7
BRANCH   1  21
ATOM     21  O1  CHE B   04     19.734  69.531   2.612  0.00  0.00    -0.454 OA
BRANCH  21  25
ATOM     22  C1  CHE B   04     17.586  68.306   7.591  0.00  0.00    +0.046 C 
ATOM     23  C2  CHE B   04     17.624  68.442   6.598  0.00  0.00    -0.026 A 
ATOM     24  C3  CHE B   04     18.857  68.536   8.576  0.00  0.00    +0.053 A 
ATOM     25  C4  CHE B   04     18.934  68.433   9.568  0.00  0.00    +0.156 A 
ATOM     26  C20 CHE B   04     17.558  68.923   2.626  0.00  0.00    +0.131 A 
ATOM     27  N5  CHE B   04     16.738  67.819   9.582  0.00  0.00    -0.246 NA
ATOM     28  C26 CHE B   04     16.335  68.707   1.641  0.00  0.00    +0.042 A 
ATOM     29  C27 CHE B   04     15.428  67.454   9.591  0.00  0.00    +0.066 C 
BRANCH  26  30
ATOM     30  C21 CHE B   04     17.807  68.118   9.575  0.00  0.00    +0.093 A 
ATOM     31  C22 CHE B   04     18.177  67.133   9.445  0.00  0.00    +0.030 A 
ATOM     32  C23 CHE B   04     18.217  67.006  10.436  0.00  0.00    +0.004 A 
ATOM     33  C24 CHE B   04     17.551  68.942   2.629  0.00  0.00    +0.020 A 
ATOM     34  C25 CHE B   04     17.154  70.016   1.763  0.00  0.00    +0.111 A 
ATOM     35  N4  CHE B   04     17.164  69.988   1.759  0.00  0.00    -0.253 NA
ENDBRANCH  26  30
ENDBRANCH  21  25
ENDBRANCH   1  21
TORSDOF 6
ENDMDL
MODEL 8
REMARK VINA RESULT:     -10.0      3.249      8.318
REMARK  Name = dock_mp/CHEMBL5/CHEMBL574413.pdb
REMARK  8 active torsions:
REMARK  status: ('A' for Active; 'I' for Inactive)
REMARK    1  A    between atoms: C1_1  and  C2_2
REMARK    2  A    between atoms: C4_4  and  O1_5
REMARK    3  A    between atoms: O1_5  and  C5_6
REMARK    4  A    between atoms: C8_10  and  N2_11
REMARK    5  A    between atoms: N2_11  and  C9_12
REMARK    6  A    between atoms: C13_16  and  N3_17
REMARK    7  A    between atoms: C20_25  and  C21_26
REMARK    8  A    between atoms: C26_33  and  C27_34
REMARK                            x       y       z     vdW  Elec       q    Type
REMARK                         _______ _______ _______ _____ _____    ______ ____
ROOT
ATOM      1  C5  CHE B   04     19.009  69.251   5.675  0.00  0.00    +0.133 A 
ATOM      2  C6  CHE B   04     19.581  69.092   7.588  0.00  0.00    +0.066 A 
ATOM      3  C7  CHE B   04     21.831  68.445  12.156  0.00  0.00    +0.116 A 
ATOM      4  N1  CHE B   04     21.126  68.608   5.121  0.00  0.00    -0.240 NA
ATOM      5  C8  CHE B   04     22.460  68.247  10.960  0.00  0.00    +0.126 A 
ATOM      6  C19 CHE B   04     20.228  68.888   6.387  0.00  0.00    +0.090 A 
ENDROOT
BRANCH   5   7
ATOM      7  N2  CHE B   04     23.339  67.972   9.698  0.00  0.00    -0.299 N 
ATOM      8  H7  CHE B   04     24.975  65.589   8.893  0.00  0.00    +0.154 HD
BRANCH   7   9
ATOM      9  C9  CHE B   04     22.575  70.073   9.258  0.00  0.00    +0.034 A 
ATOM     10  C10 CHE B   04     27.276  63.744   7.875  0.00  0.00    +0.023 A 
ATOM     11  C11 CHE B   04     22.888  70.466   8.662  0.00  0.00    +0.004 A 
ATOM     12  C12 CHE B   04     26.998  66.455   6.510  0.00  0.00    +0.023 A 
ATOM     13  C13 CHE B   04     26.502  67.362   6.508  0.00  0.00    +0.032 A 
ATOM     14  C18 CHE B   04     23.685  69.938   8.090  0.00  0.00    +0.046 A 
BRANCH  13  15
ATOM     15  N3  CHE B   04     28.836  65.707   4.900  0.00  0.00    -0.325 N 
ATOM     16  C14 CHE B   04     25.166  69.219   4.460  0.00  0.00    +0.133 C 
ATOM     17  C15 CHE B   04     27.500  67.566   2.843  0.00  0.00    +0.178 C 
ATOM     18  O2  CHE B   04     28.993  66.246   2.670  0.00  0.00    -0.377 OA
ATOM     19  C16 CHE B   04     24.447  69.975   4.149  0.00  0.00    +0.178 C 
ATOM     20  C17 CHE B   04     26.618  67.760   4.859  0.00  0.00    +0.133 C 
ENDBRANCH  13  15
ENDBRANCH   7   9
ENDBRANCH   5   7
BRANCH   1  21
ATOM     21  O1  CHE B   04     19.276  69.214  11.794  0.00  0.00    -0.454 OA
BRANCH  21  25
ATOM     22  C1  CHE B   04     16.443  67.129   7.489  0.00  0.00    +0.046 C 
ATOM     23  C2  CHE B   04     16.712  67.286   8.443  0.00  0.00    -0.026 A 
ATOM     24  C3  CHE B   04     17.172  67.842   6.225  0.00  0.00    +0.053 A 
ATOM     25  C4  CHE B   04     16.992  67.762   5.244  0.00  0.00    +0.156 A 
ATOM     26  C20 CHE B   04     17.618  67.767  12.310  0.00  0.00    +0.131 A 
ATOM     27  N5  CHE B   04     15.319  66.303   5.764  0.00  0.00    -0.246 NA
ATOM     28  C26 CHE B   04     16.926  67.086  13.563  0.00  0.00    +0.042 A 
ATOM     29  C27 CHE B   04     14.321  65.432   6.075  0.00  0.00    +0.066 C 
BRANCH  26  30
ATOM     30  C21 CHE B   04     16.133  67.013   5.511  0.00  0.00    +0.093 A 
ATOM     31  C22 CHE B   04     15.572  67.912   5.537  0.00  0.00    +0.030 A 
ATOM     32  C23 CHE B   04     15.353  67.815   4.566  0.00  0.00    +0.004 A 
ATOM     33  C24 CHE B   04     17.629  67.750  12.309  0.00  0.00    +0.020 A 
ATOM     34  C25 CHE B   04     18.388  66.982  13.255  0.00  0.00    +0.111 A 
ATOM     35  N4  CHE B   04     18.372  67.008  13.256  0.00  0.00    -0.253 NA
ENDBRANCH  26  30
ENDBRANCH  21  25
ENDBRANCH   1  21
TORSDOF 6
ENDMDL
MODEL 9
REMARK VINA RESULT:     -10.0      3.259      8.388
REMARK  Name = dock_mp/CHEMBL5/CHEMBL574413.pdb
REMARK  8 active torsions:
REMARK  status: ('A' for Active; 'I' for Inactive)
REMARK    1  A    between atoms: C1_1  and  C2_2
REMARK    2  A    between atoms: C4_4  and  O1_5
REMARK    3  A    between atoms: O1_5  and  C5_6
REMARK    4  A    between atoms: C8_10  and  N2_11
REMARK    5  A    between atoms: N2_11  and  C9_12
REMARK    6  A    between atoms: C13_16  and  N3_17
REMARK    7  A    between atoms: C20_25  and  C21_26
REMARK    8  A    between atoms: C26_33  and  C27_34
REMARK                            x       y       z     vdW  Elec       q    Type
REMARK                         _______ _______ _______ _____ _____    ______ ____
ROOT
ATOM      1  C5  CHE B   04     20.102  69.518   7.263  0.00  0.00    +0.133 A 
ATOM      2  C6  CHE B   04     20.438  69.233   9.217  0.00  0.00    +0.066 A 
ATOM      3  C7  CHE B   04     22.150  68.413  13.986  0.00  0.00    +0.116 A 
ATOM      4  N1  CHE B   04     22.345  69.241   6.964  0.00  0.00    -0.240 NA
ATOM      5  C8  CHE B   04     22.951  68.436  12.880  0.00  0.00    +0.126 A 
ATOM      6  C19 CHE B   04     21.259  69.254   8.108  0.00  0.00    +0.090 A 
ENDROOT
BRANCH   5   7
ATOM      7  N2  CHE B   04     24.018  68.426  11.739  0.00  0.00    -0.299 N 
ATOM      8  H7  CHE B   04     25.683  66.208  10.591  0.00  0.00    +0.154 HD
BRANCH   7   9
ATOM      9  C9  CHE B   04     23.410  70.621  11.758  0.00  0.00    +0.034 A 
ATOM     10  C10 CHE B   04     26.624  64.127   8.357  0.00  0.00    +0.023 A 
ATOM     11  C11 CHE B   04     23.559  71.055  11.127  0.00  0.00    +0.004 A 
ATOM     12  C12 CHE B   04     26.247  66.996   7.398  0.00  0.00    +0.023 A 
ATOM     13  C13 CHE B   04     25.889  67.935   7.638  0.00  0.00    +0.032 A 
ATOM     14  C18 CHE B   04     24.060  70.533  10.280  0.00  0.00    +0.046 A 
BRANCH  13  15
ATOM     15  N3  CHE B   04     27.366  66.292   5.211  0.00  0.00    -0.325 N 
ATOM     16  C14 CHE B   04     27.413  70.580   7.970  0.00  0.00    +0.133 C 
ATOM     17  C15 CHE B   04     28.898  68.942   5.539  0.00  0.00    +0.178 C 
ATOM     18  O2  CHE B   04     29.159  67.400   4.291  0.00  0.00    -0.377 OA
ATOM     19  C16 CHE B   04     27.602  71.548   8.429  0.00  0.00    +0.178 C 
ATOM     20  C17 CHE B   04     27.215  68.754   6.958  0.00  0.00    +0.133 C 
ENDBRANCH  13  15
ENDBRANCH   7   9
ENDBRANCH   5   7
BRANCH   1  21
ATOM     21  O1  CHE B   04     19.576  68.853  13.329  0.00  0.00    -0.454 OA
BRANCH  21  25
ATOM     22  C1  CHE B   04     17.279  67.311   8.507  0.00  0.00    +0.046 C 
ATOM     23  C2  CHE B   04     17.421  67.367   9.498  0.00  0.00    -0.026 A 
ATOM     24  C3  CHE B   04     18.199  68.099   7.425  0.00  0.00    +0.053 A 
ATOM     25  C4  CHE B   04     18.150  68.117   6.425  0.00  0.00    +0.156 A 
ATOM     26  C20 CHE B   04     17.811  67.450  13.479  0.00  0.00    +0.131 A 
ATOM     27  N5  CHE B   04     16.369  66.702   6.577  0.00  0.00    -0.246 NA
ATOM     28  C26 CHE B   04     16.930  66.693  14.558  0.00  0.00    +0.042 A 
ATOM     29  C27 CHE B   04     15.307  65.857   6.668  0.00  0.00    +0.066 C 
BRANCH  26  30
ATOM     30  C21 CHE B   04     17.236  67.391   6.503  0.00  0.00    +0.093 A 
ATOM     31  C22 CHE B   04     16.582  68.223   6.553  0.00  0.00    +0.030 A 
ATOM     32  C23 CHE B   04     16.492  68.225   5.557  0.00  0.00    +0.004 A 
ATOM     33  C24 CHE B   04     17.823  67.434  13.479  0.00  0.00    +0.020 A 
ATOM     34  C25 CHE B   04     18.543  66.632  14.427  0.00  0.00    +0.111 A 
ATOM     35  N4  CHE B   04     18.524  66.655  14.428  0.00  0.00    -0.253 NA
ENDBRANCH  26  30
ENDBRANCH  21  25
ENDBRANCH   1  21
TORSDOF 6
ENDMDL
MODEL 10
REMARK VINA RESULT:      -9.9      1.431      2.837
REMARK  Name = dock_mp/CHEMBL5/CHEMBL574413.pdb
REMARK  8 active torsions:
REMARK  status: ('A' for Active; 'I' for Inactive)
REMARK    1  A    between atoms: C1_1  and  C2_2
REMARK    2  A    between atoms: C4_4  and  O1_5
REMARK    3  A    between atoms: O1_5  and  C5_6
REMARK    4  A    between atoms: C8_10  and  N2_11
REMARK    5  A    between atoms: N2_11  and  C9_12
REMARK    6  A    between atoms: C13_16  and  N3_17
REMARK    7  A    between atoms: C20_25  and  C21_26
REMARK    8  A    between atoms: C26_33  and  C27_34
REMARK                            x       y       z     vdW  Elec       q    Type
REMARK                         _______ _______ _______ _____ _____    ______ ____
ROOT
ATOM      1  C5  CHE B   04     17.515  67.756   7.378  0.00  0.00    +0.133 A 
ATOM      2  C6  CHE B   04     19.472  68.179   7.340  0.00  0.00    +0.066 A 
ATOM      3  C7  CHE B   04     24.497  68.937   8.065  0.00  0.00    +0.116 A 
ATOM      4  N1  CHE B   04     17.852  66.983   9.496  0.00  0.00    -0.240 NA
ATOM      5  C8  CHE B   04     23.664  68.391   9.000  0.00  0.00    +0.126 A 
ATOM      6  C19 CHE B   04     18.642  67.627   8.293  0.00  0.00    +0.090 A 
ENDROOT
BRANCH   5   7
ATOM      7  N2  CHE B   04     22.871  67.754  10.185  0.00  0.00    -0.299 N 
ATOM      8  H7  CHE B   04     20.038  68.119  11.108  0.00  0.00    +0.154 HD
BRANCH   7   9
ATOM      9  C9  CHE B   04     24.907  66.764  10.432  0.00  0.00    +0.034 A 
ATOM     10  C10 CHE B   04     17.512  68.599  12.882  0.00  0.00    +0.023 A 
ATOM     11  C11 CHE B   04     25.050  66.361  11.084  0.00  0.00    +0.004 A 
ATOM     12  C12 CHE B   04     19.769  66.984  14.141  0.00  0.00    +0.023 A 
ATOM     13  C13 CHE B   04     20.735  66.636  14.026  0.00  0.00    +0.032 A 
ATOM     14  C18 CHE B   04     24.220  66.321  11.826  0.00  0.00    +0.046 A 
BRANCH  13  15
ATOM     15  N3  CHE B   04     18.222  66.589  16.136  0.00  0.00    -0.325 N 
ATOM     16  C14 CHE B   04     22.622  64.357  14.847  0.00  0.00    +0.133 C 
ATOM     17  C15 CHE B   04     20.109  64.302  16.963  0.00  0.00    +0.178 C 
ATOM     18  O2  CHE B   04     18.373  64.936  17.728  0.00  0.00    -0.377 OA
ATOM     19  C16 CHE B   04     23.517  63.745  14.748  0.00  0.00    +0.178 C 
ATOM     20  C17 CHE B   04     20.847  65.415  15.203  0.00  0.00    +0.133 C 
ENDBRANCH  13  15
ENDBRANCH   7   9
ENDBRANCH   5   7
BRANCH   1  21
ATOM     21  O1  CHE B   04     23.157  69.555   5.813  0.00  0.00    -0.454 OA
BRANCH  21  25
ATOM     22  C1  CHE B   04     18.045  68.788   3.768  0.00  0.00    +0.046 C 
ATOM     23  C2  CHE B   04     19.022  69.015   3.780  0.00  0.00    -0.026 A 
ATOM     24  C3  CHE B   04     17.220  68.313   5.084  0.00  0.00    +0.053 A 
ATOM     25  C4  CHE B   04     16.256  68.064   5.188  0.00  0.00    +0.156 A 
ATOM     26  C20 CHE B   04     22.904  69.966   3.605  0.00  0.00    +0.131 A 
ATOM     27  N5  CHE B   04     16.001  68.479   2.961  0.00  0.00    -0.246 NA
ATOM     28  C26 CHE B   04     23.735  70.432   2.338  0.00  0.00    +0.042 A 
ATOM     29  C27 CHE B   04     15.849  68.726   1.632  0.00  0.00    +0.066 C 
BRANCH  26  30
ATOM     30  C21 CHE B   04     16.125  68.277   4.045  0.00  0.00    +0.093 A 
ATOM     31  C22 CHE B   04     16.378  67.252   3.956  0.00  0.00    +0.030 A 
ATOM     32  C23 CHE B   04     15.413  66.998   4.018  0.00  0.00    +0.004 A 
ATOM     33  C24 CHE B   04     22.899  69.985   3.607  0.00  0.00    +0.020 A 
ATOM     34  C25 CHE B   04     23.622  71.226   3.631  0.00  0.00    +0.111 A 
ATOM     35  N4  CHE B   04     23.629  71.197   3.628  0.00  0.00    -0.253 NA
ENDBRANCH  26  30
ENDBRANCH  21  25
ENDBRANCH   1  21
TORSDOF 6
ENDMDL
