MODEL 1
REMARK VINA RESULT:     -10.7      0.000      0.000
REMARK  Name = dock_mp/CHEMBL5/CHEMBL565643.pdb
REMARK  3 active torsions:
REMARK  status: ('A' for Active; 'I' for Inactive)
REMARK    1  A    between atoms: C1_1  and  C2_2
REMARK    2  A    between atoms: C9_9  and  C10_10
REMARK    3  A    between atoms: C12_15  and  C13_16
REMARK                            x       y       z     vdW  Elec       q    Type
REMARK                         _______ _______ _______ _____ _____    ______ ____
ROOT
ATOM      1  C10 CHE B   06     21.533  69.565   2.101  0.00  0.00    +0.068 A 
ATOM      2  S1  CHE B   06     21.724  69.688   2.137  0.00  0.00    -0.050 S 
ATOM      3  C11 CHE B   06     22.555  70.353   7.365  0.00  0.00    +0.157 A 
ATOM      4  N1  CHE B   06     23.060  70.704   8.474  0.00  0.00    -0.337 N 
ATOM      5  N2  CHE B   06     23.042  70.587   4.413  0.00  0.00    -0.223 NA
ATOM      6  C12 CHE B   06     21.268  69.631  11.181  0.00  0.00    +0.108 A 
ATOM      7  H9  CHE B   06     24.077  71.305   6.636  0.00  0.00    +0.144 HD
ATOM      8  H10 CHE B   06     22.920  70.588   7.433  0.00  0.00    +0.144 HD
ENDROOT
BRANCH   1  17
ATOM      9  C1  CHE B   06     18.022  68.520   3.700  0.00  0.00    +0.046 C 
ATOM     10  C2  CHE B   06     17.415  67.450   6.479  0.00  0.00    -0.024 A 
ATOM     11  C3  CHE B   06     16.409  69.017   1.681  0.00  0.00    +0.005 A 
ATOM     12  C4  CHE B   06     15.821  67.949   4.463  0.00  0.00    +0.001 A 
ATOM     13  C5  CHE B   06     16.392  66.670   8.282  0.00  0.00    +0.010 A 
ATOM     14  C6  CHE B   06     17.845  68.836   2.742  0.00  0.00    +0.001 A 
ATOM     15  C7  CHE B   06     18.498  68.571   3.739  0.00  0.00    +0.012 A 
ATOM     16  C8  CHE B   06     19.666  68.361   4.778  0.00  0.00    +0.029 A 
ATOM     17  C9  CHE B   06     20.183  68.751   3.877  0.00  0.00    +0.080 A 
ATOM     18  N4  CHE B   06     19.316  67.318   7.578  0.00  0.00    -0.246 NA
ATOM     19  C18 CHE B   06     18.046  66.512   9.360  0.00  0.00    +0.075 A 
ENDBRANCH   1  17
BRANCH   6  20
ATOM     20  C13 CHE B   06     22.089  70.054   7.277  0.00  0.00    +0.090 A 
ATOM     21  C14 CHE B   06     23.722  70.174   3.580  0.00  0.00    +0.030 A 
ATOM     22  C15 CHE B   06     21.250  69.638  11.176  0.00  0.00    +0.004 A 
ATOM     23  C16 CHE B   06     22.053  70.432   5.212  0.00  0.00    +0.020 A 
ATOM     24  C17 CHE B   06     20.977  70.469   6.995  0.00  0.00    +0.111 A 
ATOM     25  N3  CHE B   06     21.561  70.433   6.115  0.00  0.00    -0.253 NA
ENDBRANCH   6  20
TORSDOF 2
ENDMDL
MODEL 2
REMARK VINA RESULT:     -10.3      2.832      6.117
REMARK  Name = dock_mp/CHEMBL5/CHEMBL565643.pdb
REMARK  3 active torsions:
REMARK  status: ('A' for Active; 'I' for Inactive)
REMARK    1  A    between atoms: C1_1  and  C2_2
REMARK    2  A    between atoms: C9_9  and  C10_10
REMARK    3  A    between atoms: C12_15  and  C13_16
REMARK                            x       y       z     vdW  Elec       q    Type
REMARK                         _______ _______ _______ _____ _____    ______ ____
ROOT
ATOM      1  C10 CHE B   06     15.549  66.859   4.258  0.00  0.00    +0.068 A 
ATOM      2  S1  CHE B   06     15.371  66.740   4.341  0.00  0.00    -0.050 S 
ATOM      3  C11 CHE B   06     15.738  66.284   9.643  0.00  0.00    +0.157 A 
ATOM      4  N1  CHE B   06     15.494  65.982  10.851  0.00  0.00    -0.337 N 
ATOM      5  N2  CHE B   06     14.595  65.947   6.889  0.00  0.00    -0.223 NA
ATOM      6  C12 CHE B   06     17.858  67.127  13.039  0.00  0.00    +0.108 A 
ATOM      7  H9  CHE B   06     14.084  65.329   9.315  0.00  0.00    +0.144 HD
ATOM      8  H10 CHE B   06     15.395  66.057   9.802  0.00  0.00    +0.144 HD
ENDROOT
BRANCH   1  17
ATOM      9  C1  CHE B   06     18.998  68.788   4.859  0.00  0.00    +0.046 C 
ATOM     10  C2  CHE B   06     20.447  69.375   7.465  0.00  0.00    -0.024 A 
ATOM     11  C3  CHE B   06     19.645  69.396   2.382  0.00  0.00    +0.005 A 
ATOM     12  C4  CHE B   06     21.078  69.973   4.995  0.00  0.00    +0.001 A 
ATOM     13  C5  CHE B   06     21.907  70.073   8.977  0.00  0.00    +0.010 A 
ATOM     14  C6  CHE B   06     18.818  68.780   3.851  0.00  0.00    +0.001 A 
ATOM     15  C7  CHE B   06     18.617  68.552   5.033  0.00  0.00    +0.012 A 
ATOM     16  C8  CHE B   06     18.005  68.069   6.404  0.00  0.00    +0.029 A 
ATOM     17  C9  CHE B   06     17.271  67.718   5.650  0.00  0.00    +0.080 A 
ATOM     18  N4  CHE B   06     19.248  68.529   9.105  0.00  0.00    -0.246 NA
ATOM     19  C18 CHE B   06     20.906  69.349  10.526  0.00  0.00    +0.075 A 
ENDBRANCH   1  17
BRANCH   6  20
ATOM     20  C13 CHE B   06     16.173  66.572   9.442  0.00  0.00    +0.090 A 
ATOM     21  C14 CHE B   06     14.623  65.149   5.989  0.00  0.00    +0.030 A 
ATOM     22  C15 CHE B   06     17.855  67.147  13.036  0.00  0.00    +0.004 A 
ATOM     23  C16 CHE B   06     15.257  66.772   7.563  0.00  0.00    +0.020 A 
ATOM     24  C17 CHE B   06     15.990  67.761   9.242  0.00  0.00    +0.111 A 
ATOM     25  N3  CHE B   06     15.631  67.218   8.411  0.00  0.00    -0.253 NA
ENDBRANCH   6  20
TORSDOF 2
ENDMDL
MODEL 3
REMARK VINA RESULT:     -10.3      2.142      5.438
REMARK  Name = dock_mp/CHEMBL5/CHEMBL565643.pdb
REMARK  3 active torsions:
REMARK  status: ('A' for Active; 'I' for Inactive)
REMARK    1  A    between atoms: C1_1  and  C2_2
REMARK    2  A    between atoms: C9_9  and  C10_10
REMARK    3  A    between atoms: C12_15  and  C13_16
REMARK                            x       y       z     vdW  Elec       q    Type
REMARK                         _______ _______ _______ _____ _____    ______ ____
ROOT
ATOM      1  C10 CHE B   06     17.826  68.637   1.626  0.00  0.00    +0.068 A 
ATOM      2  S1  CHE B   06     17.613  68.551   1.638  0.00  0.00    -0.050 S 
ATOM      3  C11 CHE B   06     16.160  67.897   6.729  0.00  0.00    +0.157 A 
ATOM      4  N1  CHE B   06     15.492  67.614   7.769  0.00  0.00    -0.337 N 
ATOM      5  N2  CHE B   06     15.934  67.847   3.737  0.00  0.00    -0.223 NA
ATOM      6  C12 CHE B   06     17.173  68.251  10.678  0.00  0.00    +0.108 A 
ATOM      7  H9  CHE B   06     14.569  67.270   5.819  0.00  0.00    +0.144 HD
ATOM      8  H10 CHE B   06     15.753  67.733   6.753  0.00  0.00    +0.144 HD
ENDROOT
BRANCH   1  17
ATOM      9  C1  CHE B   06     21.264  69.512   3.465  0.00  0.00    +0.046 C 
ATOM     10  C2  CHE B   06     21.798  70.003   6.418  0.00  0.00    -0.024 A 
ATOM     11  C3  CHE B   06     22.912  69.542   1.414  0.00  0.00    +0.005 A 
ATOM     12  C4  CHE B   06     23.426  70.029   4.367  0.00  0.00    +0.001 A 
ATOM     13  C5  CHE B   06     22.767  70.439   8.360  0.00  0.00    +0.010 A 
ATOM     14  C6  CHE B   06     21.463  69.416   2.466  0.00  0.00    +0.001 A 
ATOM     15  C7  CHE B   06     20.792  69.428   3.485  0.00  0.00    +0.012 A 
ATOM     16  C8  CHE B   06     19.609  69.349   4.526  0.00  0.00    +0.029 A 
ATOM     17  C9  CHE B   06     19.120  69.131   3.555  0.00  0.00    +0.080 A 
ATOM     18  N4  CHE B   06     19.887  69.794   7.488  0.00  0.00    -0.246 NA
ATOM     19  C18 CHE B   06     21.102  70.274   9.421  0.00  0.00    +0.075 A 
ENDBRANCH   1  17
BRANCH   6  20
ATOM     20  C13 CHE B   06     16.679  68.106   6.699  0.00  0.00    +0.090 A 
ATOM     21  C14 CHE B   06     15.451  68.445   2.862  0.00  0.00    +0.030 A 
ATOM     22  C15 CHE B   06     17.189  68.240  10.674  0.00  0.00    +0.004 A 
ATOM     23  C16 CHE B   06     16.836  67.768   4.633  0.00  0.00    +0.020 A 
ATOM     24  C17 CHE B   06     17.685  67.444   6.507  0.00  0.00    +0.111 A 
ATOM     25  N3  CHE B   06     17.219  67.633   5.578  0.00  0.00    -0.253 NA
ENDBRANCH   6  20
TORSDOF 2
ENDMDL
MODEL 4
REMARK VINA RESULT:      -9.9      2.437      5.571
REMARK  Name = dock_mp/CHEMBL5/CHEMBL565643.pdb
REMARK  3 active torsions:
REMARK  status: ('A' for Active; 'I' for Inactive)
REMARK    1  A    between atoms: C1_1  and  C2_2
REMARK    2  A    between atoms: C9_9  and  C10_10
REMARK    3  A    between atoms: C12_15  and  C13_16
REMARK                            x       y       z     vdW  Elec       q    Type
REMARK                         _______ _______ _______ _____ _____    ______ ____
ROOT
ATOM      1  C10 CHE B   06     14.937  66.564   6.050  0.00  0.00    +0.068 A 
ATOM      2  S1  CHE B   06     14.848  66.498   6.252  0.00  0.00    -0.050 S 
ATOM      3  C11 CHE B   06     18.230  67.611  10.225  0.00  0.00    +0.157 A 
ATOM      4  N1  CHE B   06     18.748  67.718  11.377  0.00  0.00    -0.337 N 
ATOM      5  N2  CHE B   06     15.741  66.607   8.882  0.00  0.00    -0.223 NA
ATOM      6  C12 CHE B   06     21.844  69.167  11.343  0.00  0.00    +0.108 A 
ATOM      7  H9  CHE B   06     16.767  66.812  11.213  0.00  0.00    +0.144 HD
ATOM      8  H10 CHE B   06     18.059  67.486  10.611  0.00  0.00    +0.144 HD
ENDROOT
BRANCH   1  17
ATOM      9  C1  CHE B   06     17.784  68.492   4.014  0.00  0.00    +0.046 C 
ATOM     10  C2  CHE B   06     20.522  69.425   4.948  0.00  0.00    -0.024 A 
ATOM     11  C3  CHE B   06     16.623  68.719   1.664  0.00  0.00    +0.005 A 
ATOM     12  C4  CHE B   06     19.355  69.644   2.615  0.00  0.00    +0.001 A 
ATOM     13  C5  CHE B   06     22.551  70.307   5.042  0.00  0.00    +0.010 A 
ATOM     14  C6  CHE B   06     16.996  68.341   3.378  0.00  0.00    +0.001 A 
ATOM     15  C7  CHE B   06     17.628  68.292   4.422  0.00  0.00    +0.012 A 
ATOM     16  C8  CHE B   06     18.089  68.026   5.906  0.00  0.00    +0.029 A 
ATOM     17  C9  CHE B   06     17.073  67.583   5.864  0.00  0.00    +0.080 A 
ATOM     18  N4  CHE B   06     20.743  68.851   7.061  0.00  0.00    -0.246 NA
ATOM     19  C18 CHE B   06     22.853  69.837   6.942  0.00  0.00    +0.075 A 
ENDBRANCH   1  17
BRANCH   6  20
ATOM     20  C13 CHE B   06     18.447  67.770   9.734  0.00  0.00    +0.090 A 
ATOM     21  C14 CHE B   06     14.639  66.985   8.622  0.00  0.00    +0.030 A 
ATOM     22  C15 CHE B   06     21.854  69.154  11.332  0.00  0.00    +0.004 A 
ATOM     23  C16 CHE B   06     16.973  66.734   8.654  0.00  0.00    +0.020 A 
ATOM     24  C17 CHE B   06     19.008  66.930   9.050  0.00  0.00    +0.111 A 
ATOM     25  N3  CHE B   06     17.968  66.866   8.880  0.00  0.00    -0.253 NA
ENDBRANCH   6  20
TORSDOF 2
ENDMDL
MODEL 5
REMARK VINA RESULT:      -9.7      2.791      5.588
REMARK  Name = dock_mp/CHEMBL5/CHEMBL565643.pdb
REMARK  3 active torsions:
REMARK  status: ('A' for Active; 'I' for Inactive)
REMARK    1  A    between atoms: C1_1  and  C2_2
REMARK    2  A    between atoms: C9_9  and  C10_10
REMARK    3  A    between atoms: C12_15  and  C13_16
REMARK                            x       y       z     vdW  Elec       q    Type
REMARK                         _______ _______ _______ _____ _____    ______ ____
ROOT
ATOM      1  C10 CHE B   06     15.469  67.987   8.845  0.00  0.00    +0.068 A 
ATOM      2  S1  CHE B   06     15.510  67.932   9.064  0.00  0.00    -0.050 S 
ATOM      3  C11 CHE B   06     20.763  67.830   9.990  0.00  0.00    +0.157 A 
ATOM      4  N1  CHE B   06     21.888  67.711  10.564  0.00  0.00    -0.337 N 
ATOM      5  N2  CHE B   06     17.827  67.604  10.565  0.00  0.00    -0.223 NA
ATOM      6  C12 CHE B   06     24.539  68.315   8.492  0.00  0.00    +0.108 A 
ATOM      7  H9  CHE B   06     20.081  67.359  11.742  0.00  0.00    +0.144 HD
ATOM      8  H10 CHE B   06     20.843  67.723  10.409  0.00  0.00    +0.144 HD
ENDROOT
BRANCH   1  17
ATOM      9  C1  CHE B   06     17.023  67.972   5.163  0.00  0.00    +0.046 C 
ATOM     10  C2  CHE B   06     19.742  68.948   4.217  0.00  0.00    -0.024 A 
ATOM     11  C3  CHE B   06     15.043  66.888   3.811  0.00  0.00    +0.005 A 
ATOM     12  C4  CHE B   06     17.763  67.868   2.884  0.00  0.00    +0.001 A 
ATOM     13  C5  CHE B   06     21.503  69.466   2.979  0.00  0.00    +0.010 A 
ATOM     14  C6  CHE B   06     16.085  67.565   5.105  0.00  0.00    +0.001 A 
ATOM     15  C7  CHE B   06     17.062  68.074   5.630  0.00  0.00    +0.012 A 
ATOM     16  C8  CHE B   06     18.083  68.693   6.662  0.00  0.00    +0.029 A 
ATOM     17  C9  CHE B   06     17.202  68.435   7.286  0.00  0.00    +0.080 A 
ATOM     18  N4  CHE B   06     20.823  69.725   5.969  0.00  0.00    -0.246 NA
ATOM     19  C18 CHE B   06     22.563  70.190   4.487  0.00  0.00    +0.075 A 
ENDBRANCH   1  17
BRANCH   6  20
ATOM     20  C13 CHE B   06     20.662  67.965   9.456  0.00  0.00    +0.090 A 
ATOM     21  C14 CHE B   06     16.967  68.178  11.084  0.00  0.00    +0.030 A 
ATOM     22  C15 CHE B   06     24.535  68.302   8.477  0.00  0.00    +0.004 A 
ATOM     23  C16 CHE B   06     18.622  67.480   9.572  0.00  0.00    +0.020 A 
ATOM     24  C17 CHE B   06     20.410  67.193   8.545  0.00  0.00    +0.111 A 
ATOM     25  N3  CHE B   06     19.526  67.368   9.096  0.00  0.00    -0.253 NA
ENDBRANCH   6  20
TORSDOF 2
ENDMDL
MODEL 6
REMARK VINA RESULT:      -9.5      1.467      2.064
REMARK  Name = dock_mp/CHEMBL5/CHEMBL565643.pdb
REMARK  3 active torsions:
REMARK  status: ('A' for Active; 'I' for Inactive)
REMARK    1  A    between atoms: C1_1  and  C2_2
REMARK    2  A    between atoms: C9_9  and  C10_10
REMARK    3  A    between atoms: C12_15  and  C13_16
REMARK                            x       y       z     vdW  Elec       q    Type
REMARK                         _______ _______ _______ _____ _____    ______ ____
ROOT
ATOM      1  C10 CHE B   06     19.289  69.216   2.993  0.00  0.00    +0.068 A 
ATOM      2  S1  CHE B   06     19.494  69.308   2.943  0.00  0.00    -0.050 S 
ATOM      3  C11 CHE B   06     22.375  69.949   7.387  0.00  0.00    +0.157 A 
ATOM      4  N1  CHE B   06     23.314  70.241   8.188  0.00  0.00    -0.337 N 
ATOM      5  N2  CHE B   06     21.702  70.042   4.465  0.00  0.00    -0.223 NA
ATOM      6  C12 CHE B   06     22.591  69.517  11.450  0.00  0.00    +0.108 A 
ATOM      7  H9  CHE B   06     23.607  70.638   6.059  0.00  0.00    +0.144 HD
ATOM      8  H10 CHE B   06     22.767  70.126   7.292  0.00  0.00    +0.144 HD
ENDROOT
BRANCH   1  17
ATOM      9  C1  CHE B   06     16.832  67.526   5.654  0.00  0.00    +0.046 C 
ATOM     10  C2  CHE B   06     17.047  67.432   8.684  0.00  0.00    -0.024 A 
ATOM     11  C3  CHE B   06     14.999  66.532   4.049  0.00  0.00    +0.005 A 
ATOM     12  C4  CHE B   06     15.230  66.448   7.076  0.00  0.00    +0.001 A 
ATOM     13  C5  CHE B   06     16.672  67.045  10.832  0.00  0.00    +0.010 A 
ATOM     14  C6  CHE B   06     16.442  67.359   4.722  0.00  0.00    +0.001 A 
ATOM     15  C7  CHE B   06     17.230  67.775   5.556  0.00  0.00    +0.012 A 
ATOM     16  C8  CHE B   06     18.450  68.462   6.283  0.00  0.00    +0.029 A 
ATOM     17  C9  CHE B   06     18.641  68.658   5.208  0.00  0.00    +0.080 A 
ATOM     18  N4  CHE B   06     18.880  68.502   9.261  0.00  0.00    -0.246 NA
ATOM     19  C18 CHE B   06     18.299  67.986  11.460  0.00  0.00    +0.075 A 
ENDBRANCH   1  17
BRANCH   6  20
ATOM     20  C13 CHE B   06     21.877  69.724   7.508  0.00  0.00    +0.090 A 
ATOM     21  C14 CHE B   06     21.907  69.451   3.474  0.00  0.00    +0.030 A 
ATOM     22  C15 CHE B   06     22.574  69.528  11.452  0.00  0.00    +0.004 A 
ATOM     23  C16 CHE B   06     21.110  70.091   5.588  0.00  0.00    +0.020 A 
ATOM     24  C17 CHE B   06     20.856  70.380   7.635  0.00  0.00    +0.111 A 
ATOM     25  N3  CHE B   06     21.025  70.209   6.606  0.00  0.00    -0.253 NA
ENDBRANCH   6  20
TORSDOF 2
ENDMDL
MODEL 7
REMARK VINA RESULT:      -9.4      2.843      7.777
REMARK  Name = dock_mp/CHEMBL5/CHEMBL565643.pdb
REMARK  3 active torsions:
REMARK  status: ('A' for Active; 'I' for Inactive)
REMARK    1  A    between atoms: C1_1  and  C2_2
REMARK    2  A    between atoms: C9_9  and  C10_10
REMARK    3  A    between atoms: C12_15  and  C13_16
REMARK                            x       y       z     vdW  Elec       q    Type
REMARK                         _______ _______ _______ _____ _____    ______ ____
ROOT
ATOM      1  C10 CHE B   06     17.627  67.899  10.626  0.00  0.00    +0.068 A 
ATOM      2  S1  CHE B   06     17.408  67.837  10.593  0.00  0.00    -0.050 S 
ATOM      3  C11 CHE B   06     16.182  68.021   5.405  0.00  0.00    +0.157 A 
ATOM      4  N1  CHE B   06     15.548  67.948   4.309  0.00  0.00    -0.337 N 
ATOM      5  N2  CHE B   06     15.788  67.593   8.349  0.00  0.00    -0.223 NA
ATOM      6  C12 CHE B   06     17.439  68.796   1.589  0.00  0.00    +0.108 A 
ATOM      7  H9  CHE B   06     14.491  67.440   6.152  0.00  0.00    +0.144 HD
ATOM      8  H10 CHE B   06     15.763  67.903   5.342  0.00  0.00    +0.144 HD
ENDROOT
BRANCH   1  17
ATOM      9  C1  CHE B   06     21.005  69.456   9.163  0.00  0.00    +0.046 C 
ATOM     10  C2  CHE B   06     21.890  69.761   6.271  0.00  0.00    -0.024 A 
ATOM     11  C3  CHE B   06     22.226  70.132  11.394  0.00  0.00    +0.005 A 
ATOM     12  C4  CHE B   06     23.094  70.429   8.499  0.00  0.00    +0.001 A 
ATOM     13  C5  CHE B   06     23.035  70.233   4.436  0.00  0.00    +0.010 A 
ATOM     14  C6  CHE B   06     21.051  69.520  10.184  0.00  0.00    +0.001 A 
ATOM     15  C7  CHE B   06     20.578  69.248   9.092  0.00  0.00    +0.012 A 
ATOM     16  C8  CHE B   06     19.642  68.752   7.923  0.00  0.00    +0.029 A 
ATOM     17  C9  CHE B   06     19.065  68.514   8.840  0.00  0.00    +0.080 A 
ATOM     18  N4  CHE B   06     20.296  68.945   4.992  0.00  0.00    -0.246 NA
ATOM     19  C18 CHE B   06     21.663  69.526   3.194  0.00  0.00    +0.075 A 
ENDBRANCH   1  17
BRANCH   6  20
ATOM     20  C13 CHE B   06     16.716  68.171   5.485  0.00  0.00    +0.090 A 
ATOM     21  C14 CHE B   06     15.358  68.163   9.293  0.00  0.00    +0.030 A 
ATOM     22  C15 CHE B   06     17.453  68.782   1.591  0.00  0.00    +0.004 A 
ATOM     23  C16 CHE B   06     16.704  67.518   7.481  0.00  0.00    +0.020 A 
ATOM     24  C17 CHE B   06     17.586  67.324   5.604  0.00  0.00    +0.111 A 
ATOM     25  N3  CHE B   06     17.109  67.456   6.538  0.00  0.00    -0.253 NA
ENDBRANCH   6  20
TORSDOF 2
ENDMDL
MODEL 8
REMARK VINA RESULT:      -9.3      2.933      5.869
REMARK  Name = dock_mp/CHEMBL5/CHEMBL565643.pdb
REMARK  3 active torsions:
REMARK  status: ('A' for Active; 'I' for Inactive)
REMARK    1  A    between atoms: C1_1  and  C2_2
REMARK    2  A    between atoms: C9_9  and  C10_10
REMARK    3  A    between atoms: C12_15  and  C13_16
REMARK                            x       y       z     vdW  Elec       q    Type
REMARK                         _______ _______ _______ _____ _____    ______ ____
ROOT
ATOM      1  C10 CHE B   06     15.976  66.564   9.792  0.00  0.00    +0.068 A 
ATOM      2  S1  CHE B   06     16.119  66.602   9.968  0.00  0.00    -0.050 S 
ATOM      3  C11 CHE B   06     20.616  68.901   8.251  0.00  0.00    +0.157 A 
ATOM      4  N1  CHE B   06     21.769  69.428   8.220  0.00  0.00    -0.337 N 
ATOM      5  N2  CHE B   06     18.656  67.716  10.189  0.00  0.00    -0.223 NA
ATOM      6  C12 CHE B   06     22.753  70.357   5.080  0.00  0.00    +0.108 A 
ATOM      7  H9  CHE B   06     20.981  68.774  10.150  0.00  0.00    +0.144 HD
ATOM      8  H10 CHE B   06     20.890  68.973   8.588  0.00  0.00    +0.144 HD
ENDROOT
BRANCH   1  17
ATOM      9  C1  CHE B   06     15.417  66.379   5.839  0.00  0.00    +0.046 C 
ATOM     10  C2  CHE B   06     16.946  67.769   3.611  0.00  0.00    -0.024 A 
ATOM     11  C3  CHE B   06     13.370  64.729   5.721  0.00  0.00    +0.005 A 
ATOM     12  C4  CHE B   06     14.910  66.126   3.509  0.00  0.00    +0.001 A 
ATOM     13  C5  CHE B   06     17.652  68.475   1.634  0.00  0.00    +0.010 A 
ATOM     14  C6  CHE B   06     14.714  65.779   6.280  0.00  0.00    +0.001 A 
ATOM     15  C7  CHE B   06     15.659  66.549   6.217  0.00  0.00    +0.012 A 
ATOM     16  C8  CHE B   06     16.866  67.504   6.564  0.00  0.00    +0.029 A 
ATOM     17  C9  CHE B   06     16.515  67.153   7.556  0.00  0.00    +0.080 A 
ATOM     18  N4  CHE B   06     18.526  68.987   4.540  0.00  0.00    -0.246 NA
ATOM     19  C18 CHE B   06     19.106  69.604   2.366  0.00  0.00    +0.075 A 
ENDBRANCH   1  17
BRANCH   6  20
ATOM     20  C13 CHE B   06     20.268  68.810   7.822  0.00  0.00    +0.090 A 
ATOM     21  C14 CHE B   06     17.806  68.068  10.943  0.00  0.00    +0.030 A 
ATOM     22  C15 CHE B   06     22.752  70.338   5.071  0.00  0.00    +0.004 A 
ATOM     23  C16 CHE B   06     19.012  67.593   8.985  0.00  0.00    +0.020 A 
ATOM     24  C17 CHE B   06     20.236  67.705   7.304  0.00  0.00    +0.111 A 
ATOM     25  N3  CHE B   06     19.626  67.694   8.166  0.00  0.00    -0.253 NA
ENDBRANCH   6  20
TORSDOF 2
ENDMDL
