MODEL 1
REMARK VINA RESULT:     -10.8      0.000      0.000
REMARK  Name = dock_mp/CHEMBL5/CHEMBL594600.pdb
REMARK  4 active torsions:
REMARK  status: ('A' for Active; 'I' for Inactive)
REMARK    1  A    between atoms: C1_1  and  N1_2
REMARK    2  A    between atoms: C2_3  and  C3_4
REMARK    3  A    between atoms: C11_14  and  C12_15
REMARK    4  A    between atoms: N6_26  and  C19_27
REMARK                            x       y       z     vdW  Elec       q    Type
REMARK                         _______ _______ _______ _____ _____    ______ ____
ROOT
ATOM      1  C1  CHE B   06     19.387  68.797   9.027  0.00  0.00    +0.171 C 
ATOM      2  N1  CHE B   06     16.073  68.321   2.811  0.00  0.00    -0.283 N 
ATOM      3  C2  CHE B   06     15.860  68.267   2.969  0.00  0.00    +0.078 A 
ATOM      4  C11 CHE B   06     18.520  68.786   4.715  0.00  0.00    +0.073 A 
ATOM      5  C18 CHE B   06     18.723  68.890   3.326  0.00  0.00    +0.275 A 
ATOM      6  O2  CHE B   06     23.145  69.700   7.483  0.00  0.00    -0.266 OA
ATOM      7  N6  CHE B   06     20.558  69.147   6.921  0.00  0.00    -0.252 N 
ATOM      8  C19 CHE B   06     18.225  68.816   2.456  0.00  0.00    +0.174 C 
ENDROOT
BRANCH   3   9
ATOM      9  C3  CHE B   06     16.552  68.286   6.172  0.00  0.00    +0.003 A 
ATOM     10  C4  CHE B   06     15.110  66.592   4.010  0.00  0.00    +0.012 A 
ATOM     11  C5  CHE B   06     16.990  67.741   9.727  0.00  0.00    +0.030 A 
ATOM     12  C6  CHE B   06     15.261  65.915   6.575  0.00  0.00    +0.089 A 
ATOM     13  N2  CHE B   06     16.375  66.368  10.580  0.00  0.00    -0.252 NA
ATOM     14  C7  CHE B   06     15.831  65.664   9.947  0.00  0.00    +0.131 A 
ATOM     15  C8  CHE B   06     16.109  66.283   9.562  0.00  0.00    +0.131 A 
ATOM     16  N3  CHE B   06     16.159  66.903   8.104  0.00  0.00    -0.252 NA
ATOM     17  C9  CHE B   06     18.255  69.038  12.136  0.00  0.00    +0.090 A 
ATOM     18  C10 CHE B   06     17.151  68.608   8.116  0.00  0.00    +0.040 A 
ENDBRANCH   3   9
BRANCH   4  19
ATOM     19  C12 CHE B   06     18.116  68.736   3.775  0.00  0.00    -0.008 A 
ATOM     20  C13 CHE B   06     21.299  67.996   9.974  0.00  0.00    +0.011 A 
ATOM     21  C14 CHE B   06     19.015  68.557   5.557  0.00  0.00    +0.034 A 
ATOM     22  C15 CHE B   06     17.763  68.532   2.782  0.00  0.00    +0.134 A 
ATOM     23  N4  CHE B   06     19.723  67.677   6.175  0.00  0.00    -0.049 NA
ATOM     24  O1  CHE B   06     19.858  67.262   6.031  0.00  0.00    -0.242 OA
ATOM     25  N5  CHE B   06     19.399  67.383   5.151  0.00  0.00    -0.049 NA
ATOM     26  C16 CHE B   06     19.729  67.659   6.169  0.00  0.00    +0.135 A 
ATOM     27  C17 CHE B   06     19.673  67.831   6.228  0.00  0.00    +0.042 A 
ENDBRANCH   4  19
TORSDOF 2
ENDMDL
MODEL 2
REMARK VINA RESULT:     -10.3      2.257      4.854
REMARK  Name = dock_mp/CHEMBL5/CHEMBL594600.pdb
REMARK  4 active torsions:
REMARK  status: ('A' for Active; 'I' for Inactive)
REMARK    1  A    between atoms: C1_1  and  N1_2
REMARK    2  A    between atoms: C2_3  and  C3_4
REMARK    3  A    between atoms: C11_14  and  C12_15
REMARK    4  A    between atoms: N6_26  and  C19_27
REMARK                            x       y       z     vdW  Elec       q    Type
REMARK                         _______ _______ _______ _____ _____    ______ ____
ROOT
ATOM      1  C1  CHE B   06     20.041  67.727   9.706  0.00  0.00    +0.171 C 
ATOM      2  N1  CHE B   06     15.683  66.645   4.258  0.00  0.00    -0.283 N 
ATOM      3  C2  CHE B   06     15.904  66.704   4.115  0.00  0.00    +0.078 A 
ATOM      4  C11 CHE B   06     16.481  66.826   7.284  0.00  0.00    +0.073 A 
ATOM      5  C18 CHE B   06     15.155  66.485   6.961  0.00  0.00    +0.275 A 
ATOM      6  O2  CHE B   06     17.244  66.977  12.695  0.00  0.00    -0.266 OA
ATOM      7  N6  CHE B   06     17.706  67.119  10.035  0.00  0.00    -0.252 N 
ATOM      8  C19 CHE B   06     14.558  66.338   6.166  0.00  0.00    +0.174 C 
ENDROOT
BRANCH   3   9
ATOM      9  C3  CHE B   06     18.531  67.368   5.959  0.00  0.00    +0.003 A 
ATOM     10  C4  CHE B   06     16.941  68.443   3.522  0.00  0.00    +0.012 A 
ATOM     11  C5  CHE B   06     21.507  68.617   7.604  0.00  0.00    +0.030 A 
ATOM     12  C6  CHE B   06     19.120  69.603   4.507  0.00  0.00    +0.089 A 
ATOM     13  N2  CHE B   06     22.357  70.043   7.118  0.00  0.00    -0.252 NA
ATOM     14  C7  CHE B   06     21.913  70.547   6.256  0.00  0.00    +0.131 A 
ATOM     15  C8  CHE B   06     21.530  69.904   6.475  0.00  0.00    +0.131 A 
ATOM     16  N3  CHE B   06     20.266  69.032   6.082  0.00  0.00    -0.252 NA
ATOM     17  C9  CHE B   06     23.342  67.954   9.900  0.00  0.00    +0.090 A 
ATOM     18  C10 CHE B   06     20.090  67.489   7.298  0.00  0.00    +0.040 A 
ENDBRANCH   3   9
BRANCH   4  19
ATOM     19  C12 CHE B   06     15.786  66.652   6.553  0.00  0.00    -0.008 A 
ATOM     20  C13 CHE B   06     20.059  68.921  11.623  0.00  0.00    +0.011 A 
ATOM     21  C14 CHE B   06     17.025  67.269   8.003  0.00  0.00    +0.034 A 
ATOM     22  C15 CHE B   06     15.007  66.627   5.815  0.00  0.00    +0.134 A 
ATOM     23  N4  CHE B   06     17.214  68.340   8.692  0.00  0.00    -0.049 NA
ATOM     24  O1  CHE B   06     16.989  68.740   8.673  0.00  0.00    -0.242 OA
ATOM     25  N5  CHE B   06     16.387  68.401   7.949  0.00  0.00    -0.049 NA
ATOM     26  C16 CHE B   06     17.205  68.357   8.691  0.00  0.00    +0.135 A 
ATOM     27  C17 CHE B   06     17.298  68.192   8.699  0.00  0.00    +0.042 A 
ENDBRANCH   4  19
TORSDOF 2
ENDMDL
MODEL 3
REMARK VINA RESULT:     -10.3      2.495      5.065
REMARK  Name = dock_mp/CHEMBL5/CHEMBL594600.pdb
REMARK  4 active torsions:
REMARK  status: ('A' for Active; 'I' for Inactive)
REMARK    1  A    between atoms: C1_1  and  N1_2
REMARK    2  A    between atoms: C2_3  and  C3_4
REMARK    3  A    between atoms: C11_14  and  C12_15
REMARK    4  A    between atoms: N6_26  and  C19_27
REMARK                            x       y       z     vdW  Elec       q    Type
REMARK                         _______ _______ _______ _____ _____    ______ ____
ROOT
ATOM      1  C1  CHE B   06     17.736  67.036  10.225  0.00  0.00    +0.171 C 
ATOM      2  N1  CHE B   06     15.191  66.744   3.645  0.00  0.00    -0.283 N 
ATOM      3  C2  CHE B   06     15.382  66.930   3.601  0.00  0.00    +0.078 A 
ATOM      4  C11 CHE B   06     15.361  65.970   6.678  0.00  0.00    +0.073 A 
ATOM      5  C18 CHE B   06     14.392  65.336   5.879  0.00  0.00    +0.275 A 
ATOM      6  O2  CHE B   06     15.156  64.202  11.847  0.00  0.00    -0.266 OA
ATOM      7  N6  CHE B   06     15.898  65.555   9.626  0.00  0.00    -0.252 N 
ATOM      8  C19 CHE B   06     14.051  65.316   4.934  0.00  0.00    +0.174 C 
ENDROOT
BRANCH   3   9
ATOM      9  C3  CHE B   06     17.125  67.694   6.269  0.00  0.00    +0.003 A 
ATOM     10  C4  CHE B   06     17.102  68.081   3.191  0.00  0.00    +0.012 A 
ATOM     11  C5  CHE B   06     19.448  68.844   8.800  0.00  0.00    +0.030 A 
ATOM     12  C6  CHE B   06     18.974  69.064   4.801  0.00  0.00    +0.089 A 
ATOM     13  N2  CHE B   06     20.859  69.787   8.464  0.00  0.00    -0.252 NA
ATOM     14  C7  CHE B   06     20.995  70.013   7.403  0.00  0.00    +0.131 A 
ATOM     15  C8  CHE B   06     20.359  69.588   7.555  0.00  0.00    +0.131 A 
ATOM     16  N3  CHE B   06     19.134  68.902   6.819  0.00  0.00    -0.252 NA
ATOM     17  C9  CHE B   06     19.879  68.730  11.780  0.00  0.00    +0.090 A 
ATOM     18  C10 CHE B   06     17.970  67.990   8.124  0.00  0.00    +0.040 A 
ENDBRANCH   3   9
BRANCH   4  19
ATOM     19  C12 CHE B   06     14.935  65.867   5.753  0.00  0.00    -0.008 A 
ATOM     20  C13 CHE B   06     16.857  67.153  12.368  0.00  0.00    +0.011 A 
ATOM     21  C14 CHE B   06     15.516  66.218   7.639  0.00  0.00    +0.034 A 
ATOM     22  C15 CHE B   06     14.360  65.844   4.847  0.00  0.00    +0.134 A 
ATOM     23  N4  CHE B   06     15.039  66.803   8.682  0.00  0.00    -0.049 NA
ATOM     24  O1  CHE B   06     14.636  67.018   8.734  0.00  0.00    -0.242 OA
ATOM     25  N5  CHE B   06     14.376  66.826   7.787  0.00  0.00    -0.049 NA
ATOM     26  C16 CHE B   06     15.021  66.812   8.684  0.00  0.00    +0.135 A 
ATOM     27  C17 CHE B   06     15.188  66.723   8.662  0.00  0.00    +0.042 A 
ENDBRANCH   4  19
TORSDOF 2
ENDMDL
MODEL 4
REMARK VINA RESULT:     -10.3      2.334      4.649
REMARK  Name = dock_mp/CHEMBL5/CHEMBL594600.pdb
REMARK  4 active torsions:
REMARK  status: ('A' for Active; 'I' for Inactive)
REMARK    1  A    between atoms: C1_1  and  N1_2
REMARK    2  A    between atoms: C2_3  and  C3_4
REMARK    3  A    between atoms: C11_14  and  C12_15
REMARK    4  A    between atoms: N6_26  and  C19_27
REMARK                            x       y       z     vdW  Elec       q    Type
REMARK                         _______ _______ _______ _____ _____    ______ ____
ROOT
ATOM      1  C1  CHE B   06     18.626  67.959   9.340  0.00  0.00    +0.171 C 
ATOM      2  N1  CHE B   06     17.026  68.932   2.532  0.00  0.00    -0.283 N 
ATOM      3  C2  CHE B   06     17.249  69.085   2.538  0.00  0.00    +0.078 A 
ATOM      4  C11 CHE B   06     16.637  67.777   5.420  0.00  0.00    +0.073 A 
ATOM      5  C18 CHE B   06     15.701  67.430   4.429  0.00  0.00    +0.275 A 
ATOM      6  O2  CHE B   06     15.416  65.459  10.219  0.00  0.00    -0.266 OA
ATOM      7  N6  CHE B   06     16.676  66.916   8.320  0.00  0.00    -0.252 N 
ATOM      8  C19 CHE B   06     15.498  67.587   3.457  0.00  0.00    +0.174 C 
ENDROOT
BRANCH   3   9
ATOM      9  C3  CHE B   06     18.697  69.191   5.476  0.00  0.00    +0.003 A 
ATOM     10  C4  CHE B   06     19.337  69.371   2.446  0.00  0.00    +0.012 A 
ATOM     11  C5  CHE B   06     20.848  69.394   8.384  0.00  0.00    +0.030 A 
ATOM     12  C6  CHE B   06     21.164  69.561   4.367  0.00  0.00    +0.089 A 
ATOM     13  N2  CHE B   06     22.561  69.629   8.308  0.00  0.00    -0.252 NA
ATOM     14  C7  CHE B   06     22.949  69.713   7.291  0.00  0.00    +0.131 A 
ATOM     15  C8  CHE B   06     22.177  69.607   7.325  0.00  0.00    +0.131 A 
ATOM     16  N3  CHE B   06     20.912  69.465   6.380  0.00  0.00    -0.252 NA
ATOM     17  C9  CHE B   06     20.703  69.282  11.392  0.00  0.00    +0.090 A 
ATOM     18  C10 CHE B   06     19.277  69.209   7.452  0.00  0.00    +0.040 A 
ENDBRANCH   3   9
BRANCH   4  19
ATOM     19  C12 CHE B   06     16.335  67.866   4.446  0.00  0.00    -0.008 A 
ATOM     20  C13 CHE B   06     17.501  67.994  11.355  0.00  0.00    +0.011 A 
ATOM     21  C14 CHE B   06     16.696  67.880   6.417  0.00  0.00    +0.034 A 
ATOM     22  C15 CHE B   06     15.901  68.060   3.484  0.00  0.00    +0.134 A 
ATOM     23  N4  CHE B   06     16.194  68.431   7.466  0.00  0.00    -0.049 NA
ATOM     24  O1  CHE B   06     15.834  68.716   7.500  0.00  0.00    -0.242 OA
ATOM     25  N5  CHE B   06     15.681  68.687   6.511  0.00  0.00    -0.049 NA
ATOM     26  C16 CHE B   06     16.178  68.443   7.468  0.00  0.00    +0.135 A 
ATOM     27  C17 CHE B   06     16.326  68.325   7.454  0.00  0.00    +0.042 A 
ENDBRANCH   4  19
TORSDOF 2
ENDMDL
MODEL 5
REMARK VINA RESULT:     -10.1      1.567      1.994
REMARK  Name = dock_mp/CHEMBL5/CHEMBL594600.pdb
REMARK  4 active torsions:
REMARK  status: ('A' for Active; 'I' for Inactive)
REMARK    1  A    between atoms: C1_1  and  N1_2
REMARK    2  A    between atoms: C2_3  and  C3_4
REMARK    3  A    between atoms: C11_14  and  C12_15
REMARK    4  A    between atoms: N6_26  and  C19_27
REMARK                            x       y       z     vdW  Elec       q    Type
REMARK                         _______ _______ _______ _____ _____    ______ ____
ROOT
ATOM      1  C1  CHE B   06     20.117  68.587   9.914  0.00  0.00    +0.171 C 
ATOM      2  N1  CHE B   06     18.088  69.078   3.169  0.00  0.00    -0.283 N 
ATOM      3  C2  CHE B   06     17.842  69.059   3.279  0.00  0.00    +0.078 A 
ATOM      4  C11 CHE B   06     20.146  68.963   5.531  0.00  0.00    +0.073 A 
ATOM      5  C18 CHE B   06     20.639  69.095   4.220  0.00  0.00    +0.275 A 
ATOM      6  O2  CHE B   06     24.209  68.820   9.186  0.00  0.00    -0.266 OA
ATOM      7  N6  CHE B   06     21.731  68.809   8.104  0.00  0.00    -0.252 N 
ATOM      8  C19 CHE B   06     20.320  69.163   3.269  0.00  0.00    +0.174 C 
ENDROOT
BRANCH   3   9
ATOM      9  C3  CHE B   06     17.868  68.781   6.544  0.00  0.00    +0.003 A 
ATOM     10  C4  CHE B   06     16.575  67.539   4.012  0.00  0.00    +0.012 A 
ATOM     11  C5  CHE B   06     17.468  67.992  10.057  0.00  0.00    +0.030 A 
ATOM     12  C6  CHE B   06     16.070  66.727   6.492  0.00  0.00    +0.089 A 
ATOM     13  N2  CHE B   06     16.429  66.746  10.658  0.00  0.00    -0.252 NA
ATOM     14  C7  CHE B   06     15.892  66.205   9.876  0.00  0.00    +0.131 A 
ATOM     15  C8  CHE B   06     16.361  66.766   9.605  0.00  0.00    +0.131 A 
ATOM     16  N3  CHE B   06     16.826  67.428   8.241  0.00  0.00    -0.252 NA
ATOM     17  C9  CHE B   06     18.461  68.873  12.763  0.00  0.00    +0.090 A 
ATOM     18  C10 CHE B   06     18.120  68.876   8.586  0.00  0.00    +0.040 A 
ENDBRANCH   3   9
BRANCH   4  19
ATOM     19  C12 CHE B   06     19.937  69.039   4.532  0.00  0.00    -0.008 A 
ATOM     20  C13 CHE B   06     21.591  69.678  11.311  0.00  0.00    +0.011 A 
ATOM     21  C14 CHE B   06     20.404  69.187   6.475  0.00  0.00    +0.034 A 
ATOM     22  C15 CHE B   06     19.755  69.281   3.502  0.00  0.00    +0.134 A 
ATOM     23  N4  CHE B   06     20.775  70.111   7.291  0.00  0.00    -0.049 NA
ATOM     24  O1  CHE B   06     20.847  70.558   7.209  0.00  0.00    -0.242 OA
ATOM     25  N5  CHE B   06     20.608  70.450   6.243  0.00  0.00    -0.049 NA
ATOM     26  C16 CHE B   06     20.778  70.130   7.287  0.00  0.00    +0.135 A 
ATOM     27  C17 CHE B   06     20.748  69.946   7.321  0.00  0.00    +0.042 A 
ENDBRANCH   4  19
TORSDOF 2
ENDMDL
MODEL 6
REMARK VINA RESULT:     -10.1      1.946      2.862
REMARK  Name = dock_mp/CHEMBL5/CHEMBL594600.pdb
REMARK  4 active torsions:
REMARK  status: ('A' for Active; 'I' for Inactive)
REMARK    1  A    between atoms: C1_1  and  N1_2
REMARK    2  A    between atoms: C2_3  and  C3_4
REMARK    3  A    between atoms: C11_14  and  C12_15
REMARK    4  A    between atoms: N6_26  and  C19_27
REMARK                            x       y       z     vdW  Elec       q    Type
REMARK                         _______ _______ _______ _____ _____    ______ ____
ROOT
ATOM      1  C1  CHE B   06     18.712  67.467   8.657  0.00  0.00    +0.171 C 
ATOM      2  N1  CHE B   06     19.617  69.486   1.953  0.00  0.00    -0.283 N 
ATOM      3  C2  CHE B   06     19.352  69.436   1.939  0.00  0.00    +0.078 A 
ATOM      4  C11 CHE B   06     20.509  68.864   4.893  0.00  0.00    +0.073 A 
ATOM      5  C18 CHE B   06     21.481  69.312   3.979  0.00  0.00    +0.275 A 
ATOM      6  O2  CHE B   06     22.676  67.955   9.829  0.00  0.00    -0.266 OA
ATOM      7  N6  CHE B   06     20.891  68.144   7.807  0.00  0.00    -0.252 N 
ATOM      8  C19 CHE B   06     21.579  69.595   3.020  0.00  0.00    +0.174 C 
ENDROOT
BRANCH   3   9
ATOM      9  C3  CHE B   06     18.056  68.398   4.765  0.00  0.00    +0.003 A 
ATOM     10  C4  CHE B   06     17.518  68.418   1.709  0.00  0.00    +0.012 A 
ATOM     11  C5  CHE B   06     16.143  67.017   7.513  0.00  0.00    +0.030 A 
ATOM     12  C6  CHE B   06     15.898  67.306   3.499  0.00  0.00    +0.089 A 
ATOM     13  N2  CHE B   06     14.639  66.183   7.325  0.00  0.00    -0.252 NA
ATOM     14  C7  CHE B   06     14.306  66.104   6.287  0.00  0.00    +0.131 A 
ATOM     15  C8  CHE B   06     14.984  66.481   6.372  0.00  0.00    +0.131 A 
ATOM     16  N3  CHE B   06     16.103  67.208   5.516  0.00  0.00    -0.252 NA
ATOM     17  C9  CHE B   06     16.246  66.756  10.514  0.00  0.00    +0.090 A 
ATOM     18  C10 CHE B   06     17.531  67.894   6.691  0.00  0.00    +0.040 A 
ENDBRANCH   3   9
BRANCH   4  19
ATOM     19  C12 CHE B   06     20.725  69.169   3.940  0.00  0.00    -0.008 A 
ATOM     20  C13 CHE B   06     19.299  68.234  10.737  0.00  0.00    +0.011 A 
ATOM     21  C14 CHE B   06     20.315  68.866   5.878  0.00  0.00    +0.034 A 
ATOM     22  C15 CHE B   06     20.954  69.642   3.004  0.00  0.00    +0.134 A 
ATOM     23  N4  CHE B   06     20.173  69.583   6.937  0.00  0.00    -0.049 NA
ATOM     24  O1  CHE B   06     20.206  70.039   6.985  0.00  0.00    -0.242 OA
ATOM     25  N5  CHE B   06     20.409  70.156   6.012  0.00  0.00    -0.049 NA
ATOM     26  C16 CHE B   06     20.174  69.603   6.939  0.00  0.00    +0.135 A 
ATOM     27  C17 CHE B   06     20.161  69.414   6.920  0.00  0.00    +0.042 A 
ENDBRANCH   4  19
TORSDOF 2
ENDMDL
MODEL 7
REMARK VINA RESULT:     -10.1      1.821      2.367
REMARK  Name = dock_mp/CHEMBL5/CHEMBL594600.pdb
REMARK  4 active torsions:
REMARK  status: ('A' for Active; 'I' for Inactive)
REMARK    1  A    between atoms: C1_1  and  N1_2
REMARK    2  A    between atoms: C2_3  and  C3_4
REMARK    3  A    between atoms: C11_14  and  C12_15
REMARK    4  A    between atoms: N6_26  and  C19_27
REMARK                            x       y       z     vdW  Elec       q    Type
REMARK                         _______ _______ _______ _____ _____    ______ ____
ROOT
ATOM      1  C1  CHE B   06     21.557  68.621   7.756  0.00  0.00    +0.171 C 
ATOM      2  N1  CHE B   06     15.906  67.443   3.690  0.00  0.00    -0.283 N 
ATOM      3  C2  CHE B   06     15.806  67.342   3.919  0.00  0.00    +0.078 A 
ATOM      4  C11 CHE B   06     18.811  68.438   4.324  0.00  0.00    +0.073 A 
ATOM      5  C18 CHE B   06     18.321  68.593   3.014  0.00  0.00    +0.275 A 
ATOM      6  O2  CHE B   06     23.908  70.357   4.793  0.00  0.00    -0.266 OA
ATOM      7  N6  CHE B   06     21.523  69.238   5.401  0.00  0.00    -0.252 N 
ATOM      8  C19 CHE B   06     17.503  68.413   2.460  0.00  0.00    +0.174 C 
ENDROOT
BRANCH   3   9
ATOM      9  C3  CHE B   06     17.885  67.499   6.448  0.00  0.00    +0.003 A 
ATOM     10  C4  CHE B   06     14.871  67.763   5.763  0.00  0.00    +0.012 A 
ATOM     11  C5  CHE B   06     19.649  67.797   9.598  0.00  0.00    +0.030 A 
ATOM     12  C6  CHE B   06     15.871  68.041   8.209  0.00  0.00    +0.089 A 
ATOM     13  N2  CHE B   06     18.882  68.142  11.110  0.00  0.00    -0.252 NA
ATOM     14  C7  CHE B   06     17.799  68.265  11.036  0.00  0.00    +0.131 A 
ATOM     15  C8  CHE B   06     18.145  68.110  10.354  0.00  0.00    +0.131 A 
ATOM     16  N3  CHE B   06     17.802  67.900   8.820  0.00  0.00    -0.252 NA
ATOM     17  C9  CHE B   06     22.442  67.633  10.720  0.00  0.00    +0.090 A 
ATOM     18  C10 CHE B   06     19.444  67.526   7.793  0.00  0.00    +0.040 A 
ENDBRANCH   3   9
BRANCH   4  19
ATOM     19  C12 CHE B   06     18.036  68.303   3.668  0.00  0.00    -0.008 A 
ATOM     20  C13 CHE B   06     22.966  70.353   8.207  0.00  0.00    +0.011 A 
ATOM     21  C14 CHE B   06     19.459  68.856   4.966  0.00  0.00    +0.034 A 
ATOM     22  C15 CHE B   06     17.193  68.324   3.004  0.00  0.00    +0.134 A 
ATOM     23  N4  CHE B   06     19.816  69.932   5.577  0.00  0.00    -0.049 NA
ATOM     24  O1  CHE B   06     19.630  70.352   5.556  0.00  0.00    -0.242 OA
ATOM     25  N5  CHE B   06     18.932  70.043   4.909  0.00  0.00    -0.049 NA
ATOM     26  C16 CHE B   06     19.808  69.950   5.576  0.00  0.00    +0.135 A 
ATOM     27  C17 CHE B   06     19.885  69.776   5.584  0.00  0.00    +0.042 A 
ENDBRANCH   4  19
TORSDOF 2
ENDMDL
MODEL 8
REMARK VINA RESULT:     -10.0      2.157      5.482
REMARK  Name = dock_mp/CHEMBL5/CHEMBL594600.pdb
REMARK  4 active torsions:
REMARK  status: ('A' for Active; 'I' for Inactive)
REMARK    1  A    between atoms: C1_1  and  N1_2
REMARK    2  A    between atoms: C2_3  and  C3_4
REMARK    3  A    between atoms: C11_14  and  C12_15
REMARK    4  A    between atoms: N6_26  and  C19_27
REMARK                            x       y       z     vdW  Elec       q    Type
REMARK                         _______ _______ _______ _____ _____    ______ ____
ROOT
ATOM      1  C1  CHE B   06     18.040  67.859   4.739  0.00  0.00    +0.171 C 
ATOM      2  N1  CHE B   06     22.272  68.978  10.279  0.00  0.00    -0.283 N 
ATOM      3  C2  CHE B   06     22.072  68.855  10.412  0.00  0.00    +0.078 A 
ATOM      4  C11 CHE B   06     21.425  69.093   7.262  0.00  0.00    +0.073 A 
ATOM      5  C18 CHE B   06     22.666  69.645   7.631  0.00  0.00    +0.275 A 
ATOM      6  O2  CHE B   06     20.528  69.602   1.894  0.00  0.00    -0.266 OA
ATOM      7  N6  CHE B   06     20.193  68.971   4.502  0.00  0.00    -0.252 N 
ATOM      8  C19 CHE B   06     23.247  69.790   8.438  0.00  0.00    +0.174 C 
ENDROOT
BRANCH   3   9
ATOM      9  C3  CHE B   06     19.572  67.953   8.493  0.00  0.00    +0.003 A 
ATOM     10  C4  CHE B   06     20.204  68.855  11.394  0.00  0.00    +0.012 A 
ATOM     11  C5  CHE B   06     16.444  67.051   6.905  0.00  0.00    +0.030 A 
ATOM     12  C6  CHE B   06     17.768  68.253  10.520  0.00  0.00    +0.089 A 
ATOM     13  N2  CHE B   06     14.912  67.051   7.710  0.00  0.00    -0.252 NA
ATOM     14  C7  CHE B   06     14.967  67.352   8.759  0.00  0.00    +0.131 A 
ATOM     15  C8  CHE B   06     15.657  67.352   8.396  0.00  0.00    +0.131 A 
ATOM     16  N3  CHE B   06     17.190  67.652   8.668  0.00  0.00    -0.252 NA
ATOM     17  C9  CHE B   06     15.369  66.149   4.238  0.00  0.00    +0.090 A 
ATOM     18  C10 CHE B   06     18.251  67.352   7.033  0.00  0.00    +0.040 A 
ENDBRANCH   3   9
BRANCH   4  19
ATOM     19  C12 CHE B   06     22.095  69.293   8.010  0.00  0.00    -0.008 A 
ATOM     20  C13 CHE B   06     17.221  69.070   2.980  0.00  0.00    +0.011 A 
ATOM     21  C14 CHE B   06     20.708  69.195   6.567  0.00  0.00    +0.034 A 
ATOM     22  C15 CHE B   06     22.740  69.659   8.787  0.00  0.00    +0.134 A 
ATOM     23  N4  CHE B   06     19.882  69.998   5.993  0.00  0.00    -0.049 NA
ATOM     24  O1  CHE B   06     19.813  70.446   6.071  0.00  0.00    -0.242 OA
ATOM     25  N5  CHE B   06     20.512  70.461   6.786  0.00  0.00    -0.049 NA
ATOM     26  C16 CHE B   06     19.879  70.017   5.996  0.00  0.00    +0.135 A 
ATOM     27  C17 CHE B   06     19.908  69.832   5.964  0.00  0.00    +0.042 A 
ENDBRANCH   4  19
TORSDOF 2
ENDMDL
MODEL 9
REMARK VINA RESULT:      -9.9      1.791      5.452
REMARK  Name = dock_mp/CHEMBL5/CHEMBL594600.pdb
REMARK  4 active torsions:
REMARK  status: ('A' for Active; 'I' for Inactive)
REMARK    1  A    between atoms: C1_1  and  N1_2
REMARK    2  A    between atoms: C2_3  and  C3_4
REMARK    3  A    between atoms: C11_14  and  C12_15
REMARK    4  A    between atoms: N6_26  and  C19_27
REMARK                            x       y       z     vdW  Elec       q    Type
REMARK                         _______ _______ _______ _____ _____    ______ ____
ROOT
ATOM      1  C1  CHE B   06     18.204  68.401   4.364  0.00  0.00    +0.171 C 
ATOM      2  N1  CHE B   06     19.237  68.684  11.343  0.00  0.00    -0.283 N 
ATOM      3  C2  CHE B   06     18.973  68.627  11.349  0.00  0.00    +0.078 A 
ATOM      4  C11 CHE B   06     20.068  68.841   8.324  0.00  0.00    +0.073 A 
ATOM      5  C18 CHE B   06     21.054  69.065   9.303  0.00  0.00    +0.275 A 
ATOM      6  O2  CHE B   06     22.130  69.251   3.278  0.00  0.00    -0.266 OA
ATOM      7  N6  CHE B   06     20.391  68.887   5.317  0.00  0.00    -0.252 N 
ATOM      8  C19 CHE B   06     21.171  69.099  10.300  0.00  0.00    +0.174 C 
ENDROOT
BRANCH   3   9
ATOM      9  C3  CHE B   06     17.626  68.307   8.378  0.00  0.00    +0.003 A 
ATOM     10  C4  CHE B   06     17.708  66.948  11.165  0.00  0.00    +0.012 A 
ATOM     11  C5  CHE B   06     15.854  67.423   5.345  0.00  0.00    +0.030 A 
ATOM     12  C6  CHE B   06     16.289  66.042   9.108  0.00  0.00    +0.089 A 
ATOM     13  N2  CHE B   06     14.817  66.047   5.194  0.00  0.00    -0.252 NA
ATOM     14  C7  CHE B   06     14.738  65.453   6.108  0.00  0.00    +0.131 A 
ATOM     15  C8  CHE B   06     15.206  66.073   6.176  0.00  0.00    +0.131 A 
ATOM     16  N3  CHE B   06     16.128  66.808   7.235  0.00  0.00    -0.252 NA
ATOM     17  C9  CHE B   06     15.472  68.385   2.514  0.00  0.00    +0.090 A 
ATOM     18  C10 CHE B   06     16.962  68.405   6.431  0.00  0.00    +0.040 A 
ENDBRANCH   3   9
BRANCH   4  19
ATOM     19  C12 CHE B   06     20.302  68.901   9.319  0.00  0.00    -0.008 A 
ATOM     20  C13 CHE B   06     18.768  69.678   2.526  0.00  0.00    +0.011 A 
ATOM     21  C14 CHE B   06     19.861  69.088   7.373  0.00  0.00    +0.034 A 
ATOM     22  C15 CHE B   06     20.551  69.128  10.338  0.00  0.00    +0.134 A 
ATOM     23  N4  CHE B   06     19.716  70.044   6.524  0.00  0.00    -0.049 NA
ATOM     24  O1  CHE B   06     19.756  70.497   6.589  0.00  0.00    -0.242 OA
ATOM     25  N5  CHE B   06     19.973  70.370   7.557  0.00  0.00    -0.049 NA
ATOM     26  C16 CHE B   06     19.717  70.064   6.527  0.00  0.00    +0.135 A 
ATOM     27  C17 CHE B   06     19.701  69.876   6.500  0.00  0.00    +0.042 A 
ENDBRANCH   4  19
TORSDOF 2
ENDMDL
MODEL 10
REMARK VINA RESULT:      -9.8      1.840      5.538
REMARK  Name = dock_mp/CHEMBL5/CHEMBL594600.pdb
REMARK  4 active torsions:
REMARK  status: ('A' for Active; 'I' for Inactive)
REMARK    1  A    between atoms: C1_1  and  N1_2
REMARK    2  A    between atoms: C2_3  and  C3_4
REMARK    3  A    between atoms: C11_14  and  C12_15
REMARK    4  A    between atoms: N6_26  and  C19_27
REMARK                            x       y       z     vdW  Elec       q    Type
REMARK                         _______ _______ _______ _____ _____    ______ ____
ROOT
ATOM      1  C1  CHE B   06     21.095  69.119   4.744  0.00  0.00    +0.171 C 
ATOM      2  N1  CHE B   06     15.885  66.232   8.534  0.00  0.00    -0.283 N 
ATOM      3  C2  CHE B   06     15.761  66.228   8.295  0.00  0.00    +0.078 A 
ATOM      4  C11 CHE B   06     18.718  67.492   8.068  0.00  0.00    +0.073 A 
ATOM      5  C18 CHE B   06     18.368  67.094   9.371  0.00  0.00    +0.275 A 
ATOM      6  O2  CHE B   06     23.757  69.603   7.906  0.00  0.00    -0.266 OA
ATOM      7  N6  CHE B   06     21.311  68.742   7.139  0.00  0.00    -0.252 N 
ATOM      8  C19 CHE B   06     17.609  66.681   9.885  0.00  0.00    +0.174 C 
ENDROOT
BRANCH   3   9
ATOM      9  C3  CHE B   06     17.568  67.449   5.848  0.00  0.00    +0.003 A 
ATOM     10  C4  CHE B   06     14.622  66.907   6.654  0.00  0.00    +0.012 A 
ATOM     11  C5  CHE B   06     18.992  68.899   2.849  0.00  0.00    +0.030 A 
ATOM     12  C6  CHE B   06     15.357  68.001   4.346  0.00  0.00    +0.089 A 
ATOM     13  N2  CHE B   06     18.058  69.456   1.504  0.00  0.00    -0.252 NA
ATOM     14  C7  CHE B   06     16.980  69.332   1.635  0.00  0.00    +0.131 A 
ATOM     15  C8  CHE B   06     17.401  69.081   2.242  0.00  0.00    +0.131 A 
ATOM     16  N3  CHE B   06     17.225  68.419   3.672  0.00  0.00    -0.252 NA
ATOM     17  C9  CHE B   06     21.668  69.602   1.655  0.00  0.00    +0.090 A 
ATOM     18  C10 CHE B   06     18.983  68.137   4.520  0.00  0.00    +0.040 A 
ENDBRANCH   3   9
BRANCH   4  19
ATOM     19  C12 CHE B   06     18.014  67.081   8.688  0.00  0.00    -0.008 A 
ATOM     20  C13 CHE B   06     22.483  70.930   4.903  0.00  0.00    +0.011 A 
ATOM     21  C14 CHE B   06     19.304  68.152   7.590  0.00  0.00    +0.034 A 
ATOM     22  C15 CHE B   06     17.246  66.807   9.386  0.00  0.00    +0.134 A 
ATOM     23  N4  CHE B   06     19.620  69.391   7.444  0.00  0.00    -0.049 NA
ATOM     24  O1  CHE B   06     19.447  69.761   7.655  0.00  0.00    -0.242 OA
ATOM     25  N5  CHE B   06     18.815  69.197   8.188  0.00  0.00    -0.049 NA
ATOM     26  C16 CHE B   06     19.612  69.407   7.453  0.00  0.00    +0.135 A 
ATOM     27  C17 CHE B   06     19.684  69.254   7.366  0.00  0.00    +0.042 A 
ENDBRANCH   4  19
TORSDOF 2
ENDMDL
