MODEL 1
REMARK VINA RESULT:     -10.1      0.000      0.000
REMARK  Name = dock_mp/CHEMBL5/CHEMBL571452.pdb
REMARK  3 active torsions:
REMARK  status: ('A' for Active; 'I' for Inactive)
REMARK    1  A    between atoms: C1_1  and  C2_2
REMARK    2  A    between atoms: C6_6  and  C7_7
REMARK    3  A    between atoms: C8_9  and  N2_10
REMARK                            x       y       z     vdW  Elec       q    Type
REMARK                         _______ _______ _______ _____ _____    ______ ____
ROOT
ATOM      1  C7  CHE B   04     19.864  69.578   6.516  0.00  0.00    +0.181 A 
ATOM      2  N1  CHE B   04     20.882  69.662   9.631  0.00  0.00    -0.210 NA
ATOM      3  C8  CHE B   04     20.974  69.450  10.942  0.00  0.00    +0.136 A 
ATOM      4  C13 CHE B   04     17.780  68.160   5.996  0.00  0.00    +0.041 A 
ATOM      5  C14 CHE B   04     16.184  67.216   4.934  0.00  0.00    +0.013 A 
ATOM      6  C15 CHE B   04     18.857  68.603   7.630  0.00  0.00    +0.001 A 
ATOM      7  C16 CHE B   04     17.862  68.541   4.491  0.00  0.00    +0.002 A 
ATOM      8  C17 CHE B   04     19.474  69.501   5.534  0.00  0.00    +0.028 A 
ATOM      9  C18 CHE B   04     17.957  68.633   4.385  0.00  0.00    +0.077 A 
ATOM     10  N5  CHE B   04     22.497  70.926   9.256  0.00  0.00    -0.226 NA
ENDROOT
BRANCH   3  11
ATOM     11  N2  CHE B   04     17.845  67.622   8.750  0.00  0.00    -0.284 N 
ATOM     12  C9  CHE B   04     19.030  68.277  11.525  0.00  0.00    +0.127 A 
ATOM     13  C10 CHE B   04     18.829  68.179  10.411  0.00  0.00    +0.063 A 
ATOM     14  C11 CHE B   04     17.203  67.226   9.376  0.00  0.00    +0.116 A 
ATOM     15  N3  CHE B   04     13.573  65.115   6.363  0.00  0.00    -0.244 NA
ATOM     16  C12 CHE B   04     17.079  67.100  12.115  0.00  0.00    +0.223 A 
ATOM     17  N4  CHE B   04     15.367  66.145   8.544  0.00  0.00    -0.221 NA
ATOM     18  H7  CHE B   04     18.013  67.700   9.896  0.00  0.00    +0.155 HD
ENDBRANCH   3  11
BRANCH   1  24
ATOM     19  C1  CHE B   04     23.294  69.442   3.424  0.00  0.00    +0.065 C 
ATOM     20  C2  CHE B   04     24.903  69.499   7.359  0.00  0.00    +0.039 A 
ATOM     21  C3  CHE B   04     19.257  69.482   1.678  0.00  0.00    +0.023 A 
ATOM     22  C4  CHE B   04     17.585  69.518   1.839  0.00  0.00    +0.004 A 
ATOM     23  C5  CHE B   04     20.927  69.566   6.904  0.00  0.00    +0.031 A 
ATOM     24  C6  CHE B   04     19.208  69.544   4.415  0.00  0.00    +0.108 A 
ATOM     25  N6  CHE B   04     18.194  69.494   1.290  0.00  0.00    -0.249 NA
ENDBRANCH   1  24
TORSDOF 2
ENDMDL
MODEL 2
REMARK VINA RESULT:      -8.7      2.724      7.541
REMARK  Name = dock_mp/CHEMBL5/CHEMBL571452.pdb
REMARK  3 active torsions:
REMARK  status: ('A' for Active; 'I' for Inactive)
REMARK    1  A    between atoms: C1_1  and  C2_2
REMARK    2  A    between atoms: C6_6  and  C7_7
REMARK    3  A    between atoms: C8_9  and  N2_10
REMARK                            x       y       z     vdW  Elec       q    Type
REMARK                         _______ _______ _______ _____ _____    ______ ____
ROOT
ATOM      1  C7  CHE B   04     20.607  68.823  12.176  0.00  0.00    +0.181 A 
ATOM      2  N1  CHE B   04     22.688  70.240  10.077  0.00  0.00    -0.210 NA
ATOM      3  C8  CHE B   04     23.238  70.715   8.962  0.00  0.00    +0.136 A 
ATOM      4  C13 CHE B   04     18.409  67.896  11.211  0.00  0.00    +0.041 A 
ATOM      5  C14 CHE B   04     16.493  66.962  11.069  0.00  0.00    +0.013 A 
ATOM      6  C15 CHE B   04     20.026  68.835  10.483  0.00  0.00    +0.001 A 
ATOM      7  C16 CHE B   04     17.959  67.418  12.620  0.00  0.00    +0.002 A 
ATOM      8  C17 CHE B   04     19.885  68.351  12.791  0.00  0.00    +0.028 A 
ATOM      9  C18 CHE B   04     18.014  67.417  12.781  0.00  0.00    +0.077 A 
ATOM     10  N5  CHE B   04     24.118  70.696  11.525  0.00  0.00    -0.226 NA
ENDROOT
BRANCH   3  11
ATOM     11  N2  CHE B   04     19.442  68.848   8.781  0.00  0.00    -0.284 N 
ATOM     12  C9  CHE B   04     21.708  70.273   7.242  0.00  0.00    +0.127 A 
ATOM     13  C10 CHE B   04     21.050  69.794   8.035  0.00  0.00    +0.063 A 
ATOM     14  C11 CHE B   04     19.121  68.862   7.855  0.00  0.00    +0.116 A 
ATOM     15  N3  CHE B   04     14.515  66.522   8.033  0.00  0.00    -0.244 NA
ATOM     16  C12 CHE B   04     20.175  69.830   5.513  0.00  0.00    +0.223 A 
ATOM     17  N4  CHE B   04     17.086  67.934   7.373  0.00  0.00    -0.221 NA
ATOM     18  H7  CHE B   04     20.084  69.328   7.940  0.00  0.00    +0.155 HD
ENDBRANCH   3  11
BRANCH   1  24
ATOM     19  C1  CHE B   04     22.651  66.092  15.293  0.00  0.00    +0.065 C 
ATOM     20  C2  CHE B   04     25.576  67.746  12.688  0.00  0.00    +0.039 A 
ATOM     21  C3  CHE B   04     18.280  66.371  15.691  0.00  0.00    +0.023 A 
ATOM     22  C4  CHE B   04     16.792  66.968  15.189  0.00  0.00    +0.004 A 
ATOM     23  C5  CHE B   04     21.732  68.710  12.126  0.00  0.00    +0.031 A 
ATOM     24  C6  CHE B   04     19.233  67.877  13.613  0.00  0.00    +0.108 A 
ATOM     25  N6  CHE B   04     17.155  66.483  15.742  0.00  0.00    -0.249 NA
ENDBRANCH   1  24
TORSDOF 2
ENDMDL
MODEL 3
REMARK VINA RESULT:      -8.7      2.163      5.529
REMARK  Name = dock_mp/CHEMBL5/CHEMBL571452.pdb
REMARK  3 active torsions:
REMARK  status: ('A' for Active; 'I' for Inactive)
REMARK    1  A    between atoms: C1_1  and  C2_2
REMARK    2  A    between atoms: C6_6  and  C7_7
REMARK    3  A    between atoms: C8_9  and  N2_10
REMARK                            x       y       z     vdW  Elec       q    Type
REMARK                         _______ _______ _______ _____ _____    ______ ____
ROOT
ATOM      1  C7  CHE B   04     18.691  68.813   6.912  0.00  0.00    +0.181 A 
ATOM      2  N1  CHE B   04     19.393  68.749  10.113  0.00  0.00    -0.210 NA
ATOM      3  C8  CHE B   04     20.056  68.776  11.268  0.00  0.00    +0.136 A 
ATOM      4  C13 CHE B   04     20.656  69.133   5.281  0.00  0.00    +0.041 A 
ATOM      5  C14 CHE B   04     21.774  69.356   3.475  0.00  0.00    +0.013 A 
ATOM      6  C15 CHE B   04     20.433  69.011   7.272  0.00  0.00    +0.001 A 
ATOM      7  C16 CHE B   04     19.691  69.071   4.063  0.00  0.00    +0.002 A 
ATOM      8  C17 CHE B   04     18.544  68.845   5.863  0.00  0.00    +0.028 A 
ATOM      9  C18 CHE B   04     19.526  69.052   4.029  0.00  0.00    +0.077 A 
ATOM     10  N5  CHE B   04     17.418  68.476  10.724  0.00  0.00    -0.226 NA
ENDROOT
BRANCH   3  11
ATOM     11  N2  CHE B   04     22.185  69.210   7.634  0.00  0.00    -0.284 N 
ATOM     12  C9  CHE B   04     22.310  69.107  10.717  0.00  0.00    +0.127 A 
ATOM     13  C10 CHE B   04     21.980  69.104   9.629  0.00  0.00    +0.063 A 
ATOM     14  C11 CHE B   04     23.137  69.333   7.831  0.00  0.00    +0.116 A 
ATOM     15  N3  CHE B   04     25.383  69.822   3.202  0.00  0.00    -0.244 NA
ATOM     16  C12 CHE B   04     24.574  69.439  10.168  0.00  0.00    +0.223 A 
ATOM     17  N4  CHE B   04     24.605  69.602   6.098  0.00  0.00    -0.221 NA
ATOM     18  H7  CHE B   04     22.564  69.219   8.731  0.00  0.00    +0.155 HD
ENDBRANCH   3  11
BRANCH   1  24
ATOM     19  C1  CHE B   04     15.099  66.159   5.731  0.00  0.00    +0.065 C 
ATOM     20  C2  CHE B   04     15.802  65.852   9.912  0.00  0.00    +0.039 A 
ATOM     21  C3  CHE B   04     16.937  68.345   2.386  0.00  0.00    +0.023 A 
ATOM     22  C4  CHE B   04     18.091  69.404   1.778  0.00  0.00    +0.004 A 
ATOM     23  C5  CHE B   04     18.175  68.225   7.730  0.00  0.00    +0.031 A 
ATOM     24  C6  CHE B   04     18.183  68.852   4.770  0.00  0.00    +0.108 A 
ATOM     25  N6  CHE B   04     17.453  68.933   1.568  0.00  0.00    -0.249 NA
ENDBRANCH   1  24
TORSDOF 2
ENDMDL
MODEL 4
REMARK VINA RESULT:      -8.6      2.115      6.179
REMARK  Name = dock_mp/CHEMBL5/CHEMBL571452.pdb
REMARK  3 active torsions:
REMARK  status: ('A' for Active; 'I' for Inactive)
REMARK    1  A    between atoms: C1_1  and  C2_2
REMARK    2  A    between atoms: C6_6  and  C7_7
REMARK    3  A    between atoms: C8_9  and  N2_10
REMARK                            x       y       z     vdW  Elec       q    Type
REMARK                         _______ _______ _______ _____ _____    ______ ____
ROOT
ATOM      1  C7  CHE B   04     19.526  68.707   7.399  0.00  0.00    +0.181 A 
ATOM      2  N1  CHE B   04     20.861  69.566   4.531  0.00  0.00    -0.210 NA
ATOM      3  C8  CHE B   04     21.077  69.716   3.225  0.00  0.00    +0.136 A 
ATOM      4  C13 CHE B   04     17.333  67.362   7.322  0.00  0.00    +0.041 A 
ATOM      5  C14 CHE B   04     15.593  66.286   7.937  0.00  0.00    +0.013 A 
ATOM      6  C15 CHE B   04     18.593  68.154   5.975  0.00  0.00    +0.001 A 
ATOM      7  C16 CHE B   04     17.278  67.308   8.874  0.00  0.00    +0.002 A 
ATOM      8  C17 CHE B   04     19.034  68.393   8.283  0.00  0.00    +0.028 A 
ATOM      9  C18 CHE B   04     17.367  67.360   9.009  0.00  0.00    +0.077 A 
ATOM     10  N5  CHE B   04     22.489  70.553   5.381  0.00  0.00    -0.226 NA
ENDROOT
BRANCH   3  11
ATOM     11  N2  CHE B   04     17.655  67.598   4.543  0.00  0.00    -0.284 N 
ATOM     12  C9  CHE B   04     18.963  69.282   2.310  0.00  0.00    +0.127 A 
ATOM     13  C10 CHE B   04     18.737  68.705   3.263  0.00  0.00    +0.063 A 
ATOM     14  C11 CHE B   04     16.959  67.651   3.855  0.00  0.00    +0.116 A 
ATOM     15  N3  CHE B   04     12.985  64.980   5.802  0.00  0.00    -0.244 NA
ATOM     16  C12 CHE B   04     16.842  68.849   1.388  0.00  0.00    +0.223 A 
ATOM     17  N4  CHE B   04     14.953  66.614   4.222  0.00  0.00    -0.221 NA
ATOM     18  H7  CHE B   04     17.845  68.178   3.555  0.00  0.00    +0.155 HD
ENDBRANCH   3  11
BRANCH   1  24
ATOM     19  C1  CHE B   04     22.605  68.113  10.792  0.00  0.00    +0.065 C 
ATOM     20  C2  CHE B   04     24.610  69.182   7.199  0.00  0.00    +0.039 A 
ATOM     21  C3  CHE B   04     18.420  67.465  11.983  0.00  0.00    +0.023 A 
ATOM     22  C4  CHE B   04     16.779  67.417  11.626  0.00  0.00    +0.004 A 
ATOM     23  C5  CHE B   04     20.620  68.860   7.154  0.00  0.00    +0.031 A 
ATOM     24  C6  CHE B   04     18.656  68.147   9.342  0.00  0.00    +0.108 A 
ATOM     25  N6  CHE B   04     17.326  67.312  12.228  0.00  0.00    -0.249 NA
ENDBRANCH   1  24
TORSDOF 2
ENDMDL
MODEL 5
REMARK VINA RESULT:      -8.6      1.795      5.983
REMARK  Name = dock_mp/CHEMBL5/CHEMBL571452.pdb
REMARK  3 active torsions:
REMARK  status: ('A' for Active; 'I' for Inactive)
REMARK    1  A    between atoms: C1_1  and  C2_2
REMARK    2  A    between atoms: C6_6  and  C7_7
REMARK    3  A    between atoms: C8_9  and  N2_10
REMARK                            x       y       z     vdW  Elec       q    Type
REMARK                         _______ _______ _______ _____ _____    ______ ____
ROOT
ATOM      1  C7  CHE B   04     19.661  69.531   5.999  0.00  0.00    +0.181 A 
ATOM      2  N1  CHE B   04     17.660  68.840   3.497  0.00  0.00    -0.210 NA
ATOM      3  C8  CHE B   04     16.642  68.372   2.777  0.00  0.00    +0.136 A 
ATOM      4  C13 CHE B   04     18.996  68.639   8.320  0.00  0.00    +0.041 A 
ATOM      5  C14 CHE B   04     19.026  68.218  10.414  0.00  0.00    +0.013 A 
ATOM      6  C15 CHE B   04     18.230  68.563   6.466  0.00  0.00    +0.001 A 
ATOM      7  C16 CHE B   04     20.262  69.275   8.959  0.00  0.00    +0.002 A 
ATOM      8  C17 CHE B   04     20.256  69.712   6.857  0.00  0.00    +0.028 A 
ATOM      9  C18 CHE B   04     20.398  69.367   8.914  0.00  0.00    +0.077 A 
ATOM     10  N5  CHE B   04     18.809  69.838   2.070  0.00  0.00    -0.226 NA
ENDROOT
BRANCH   3  11
ATOM     11  N2  CHE B   04     16.790  67.589   6.936  0.00  0.00    -0.284 N 
ATOM     12  C9  CHE B   04     15.426  66.993   4.231  0.00  0.00    +0.127 A 
ATOM     13  C10 CHE B   04     16.091  67.390   5.064  0.00  0.00    +0.063 A 
ATOM     14  C11 CHE B   04     16.098  66.935   7.165  0.00  0.00    +0.116 A 
ATOM     15  N3  CHE B   04     16.586  66.242  12.264  0.00  0.00    -0.244 NA
ATOM     16  C12 CHE B   04     14.203  65.607   5.688  0.00  0.00    +0.223 A 
ATOM     17  N4  CHE B   04     15.879  66.266   9.342  0.00  0.00    -0.221 NA
ATOM     18  H7  CHE B   04     16.091  67.159   6.116  0.00  0.00    +0.155 HD
ENDBRANCH   3  11
BRANCH   1  24
ATOM     19  C1  CHE B   04     24.059  70.193   4.748  0.00  0.00    +0.065 C 
ATOM     20  C2  CHE B   04     21.708  69.287   1.324  0.00  0.00    +0.039 A 
ATOM     21  C3  CHE B   04     23.296  70.631   9.058  0.00  0.00    +0.023 A 
ATOM     22  C4  CHE B   04     22.256  70.613  10.377  0.00  0.00    +0.004 A 
ATOM     23  C5  CHE B   04     19.920  69.432   4.902  0.00  0.00    +0.031 A 
ATOM     24  C6  CHE B   04     21.026  70.013   7.657  0.00  0.00    +0.108 A 
ATOM     25  N6  CHE B   04     23.037  70.730  10.155  0.00  0.00    -0.249 NA
ENDBRANCH   1  24
TORSDOF 2
ENDMDL
MODEL 6
REMARK VINA RESULT:      -8.5      2.013      6.304
REMARK  Name = dock_mp/CHEMBL5/CHEMBL571452.pdb
REMARK  3 active torsions:
REMARK  status: ('A' for Active; 'I' for Inactive)
REMARK    1  A    between atoms: C1_1  and  C2_2
REMARK    2  A    between atoms: C6_6  and  C7_7
REMARK    3  A    between atoms: C8_9  and  N2_10
REMARK                            x       y       z     vdW  Elec       q    Type
REMARK                         _______ _______ _______ _____ _____    ______ ____
ROOT
ATOM      1  C7  CHE B   04     21.161  69.546   6.198  0.00  0.00    +0.181 A 
ATOM      2  N1  CHE B   04     21.096  69.761   2.928  0.00  0.00    -0.210 NA
ATOM      3  C8  CHE B   04     20.693  69.706   1.660  0.00  0.00    +0.136 A 
ATOM      4  C13 CHE B   04     19.036  68.681   7.365  0.00  0.00    +0.041 A 
ATOM      5  C14 CHE B   04     17.665  68.068   8.883  0.00  0.00    +0.013 A 
ATOM      6  C15 CHE B   04     19.608  69.030   5.473  0.00  0.00    +0.001 A 
ATOM      7  C16 CHE B   04     19.708  68.826   8.759  0.00  0.00    +0.002 A 
ATOM      8  C17 CHE B   04     21.104  69.449   7.252  0.00  0.00    +0.028 A 
ATOM      9  C18 CHE B   04     19.855  68.875   8.828  0.00  0.00    +0.077 A 
ATOM     10  N5  CHE B   04     23.043  70.488   2.759  0.00  0.00    -0.226 NA
ENDROOT
BRANCH   3  11
ATOM     11  N2  CHE B   04     18.047  68.510   4.743  0.00  0.00    -0.284 N 
ATOM     12  C9  CHE B   04     18.391  69.279   1.772  0.00  0.00    +0.127 A 
ATOM     13  C10 CHE B   04     18.551  69.044   2.873  0.00  0.00    +0.063 A 
ATOM     14  C11 CHE B   04     17.140  68.439   4.379  0.00  0.00    +0.116 A 
ATOM     15  N3  CHE B   04     14.228  66.975   8.390  0.00  0.00    -0.244 NA
ATOM     16  C12 CHE B   04     16.079  68.851   1.880  0.00  0.00    +0.223 A 
ATOM     17  N4  CHE B   04     15.433  67.811   5.766  0.00  0.00    -0.221 NA
ATOM     18  H7  CHE B   04     17.841  68.741   3.624  0.00  0.00    +0.155 HD
ENDBRANCH   3  11
BRANCH   1  24
ATOM     19  C1  CHE B   04     25.335  68.581   7.928  0.00  0.00    +0.065 C 
ATOM     20  C2  CHE B   04     25.540  68.761   3.685  0.00  0.00    +0.039 A 
ATOM     21  C3  CHE B   04     22.175  69.084  10.946  0.00  0.00    +0.023 A 
ATOM     22  C4  CHE B   04     20.578  69.397  11.367  0.00  0.00    +0.004 A 
ATOM     23  C5  CHE B   04     22.016  69.405   5.471  0.00  0.00    +0.031 A 
ATOM     24  C6  CHE B   04     21.239  69.415   8.394  0.00  0.00    +0.108 A 
ATOM     25  N6  CHE B   04     21.319  69.225  11.674  0.00  0.00    -0.249 NA
ENDBRANCH   1  24
TORSDOF 2
ENDMDL
MODEL 7
REMARK VINA RESULT:      -8.4      1.998      6.203
REMARK  Name = dock_mp/CHEMBL5/CHEMBL571452.pdb
REMARK  3 active torsions:
REMARK  status: ('A' for Active; 'I' for Inactive)
REMARK    1  A    between atoms: C1_1  and  C2_2
REMARK    2  A    between atoms: C6_6  and  C7_7
REMARK    3  A    between atoms: C8_9  and  N2_10
REMARK                            x       y       z     vdW  Elec       q    Type
REMARK                         _______ _______ _______ _____ _____    ______ ____
ROOT
ATOM      1  C7  CHE B   04     20.508  68.078   7.795  0.00  0.00    +0.181 A 
ATOM      2  N1  CHE B   04     23.511  69.193   7.102  0.00  0.00    -0.210 NA
ATOM      3  C8  CHE B   04     24.553  69.721   6.462  0.00  0.00    +0.136 A 
ATOM      4  C13 CHE B   04     18.738  68.225   5.932  0.00  0.00    +0.041 A 
ATOM      5  C14 CHE B   04     16.887  68.062   4.878  0.00  0.00    +0.013 A 
ATOM      6  C15 CHE B   04     20.674  68.715   6.130  0.00  0.00    +0.001 A 
ATOM      7  C16 CHE B   04     17.667  67.587   6.860  0.00  0.00    +0.002 A 
ATOM      8  C17 CHE B   04     19.515  67.739   7.942  0.00  0.00    +0.028 A 
ATOM      9  C18 CHE B   04     17.651  67.526   7.018  0.00  0.00    +0.077 A 
ATOM     10  N5  CHE B   04     24.301  68.757   8.982  0.00  0.00    -0.226 NA
ENDROOT
BRANCH   3  11
ATOM     11  N2  CHE B   04     20.842  69.355   4.456  0.00  0.00    -0.284 N 
ATOM     12  C9  CHE B   04     23.842  70.055   4.254  0.00  0.00    +0.127 A 
ATOM     13  C10 CHE B   04     22.806  69.751   4.607  0.00  0.00    +0.063 A 
ATOM     14  C11 CHE B   04     20.961  69.591   3.512  0.00  0.00    +0.116 A 
ATOM     15  N3  CHE B   04     16.270  69.032   1.417  0.00  0.00    -0.244 NA
ATOM     16  C12 CHE B   04     23.132  70.392   2.036  0.00  0.00    +0.223 A 
ATOM     17  N4  CHE B   04     19.156  69.508   2.110  0.00  0.00    -0.221 NA
ATOM     18  H7  CHE B   04     21.884  69.672   4.055  0.00  0.00    +0.155 HD
ENDBRANCH   3  11
BRANCH   1  24
ATOM     19  C1  CHE B   04     19.218  68.771  12.177  0.00  0.00    +0.065 C 
ATOM     20  C2  CHE B   04     23.118  70.345  11.558  0.00  0.00    +0.039 A 
ATOM     21  C3  CHE B   04     16.231  66.707   9.694  0.00  0.00    +0.023 A 
ATOM     22  C4  CHE B   04     15.733  66.057   8.227  0.00  0.00    +0.004 A 
ATOM     23  C5  CHE B   04     21.234  68.605   8.484  0.00  0.00    +0.031 A 
ATOM     24  C6  CHE B   04     18.502  67.321   8.294  0.00  0.00    +0.108 A 
ATOM     25  N6  CHE B   04     15.504  66.180   9.005  0.00  0.00    -0.249 NA
ENDBRANCH   1  24
TORSDOF 2
ENDMDL
MODEL 8
REMARK VINA RESULT:      -8.2      2.388      8.212
REMARK  Name = dock_mp/CHEMBL5/CHEMBL571452.pdb
REMARK  3 active torsions:
REMARK  status: ('A' for Active; 'I' for Inactive)
REMARK    1  A    between atoms: C1_1  and  C2_2
REMARK    2  A    between atoms: C6_6  and  C7_7
REMARK    3  A    between atoms: C8_9  and  N2_10
REMARK                            x       y       z     vdW  Elec       q    Type
REMARK                         _______ _______ _______ _____ _____    ______ ____
ROOT
ATOM      1  C7  CHE B   04     18.386  68.667   6.959  0.00  0.00    +0.181 A 
ATOM      2  N1  CHE B   04     17.385  68.637   3.838  0.00  0.00    -0.210 NA
ATOM      3  C8  CHE B   04     17.375  68.691   2.507  0.00  0.00    +0.136 A 
ATOM      4  C13 CHE B   04     20.895  69.052   7.388  0.00  0.00    +0.041 A 
ATOM      5  C14 CHE B   04     22.762  69.310   8.392  0.00  0.00    +0.013 A 
ATOM      6  C15 CHE B   04     19.704  68.928   5.777  0.00  0.00    +0.001 A 
ATOM      7  C16 CHE B   04     20.676  68.953   8.924  0.00  0.00    +0.002 A 
ATOM      8  C17 CHE B   04     18.786  68.690   7.940  0.00  0.00    +0.028 A 
ATOM      9  C18 CHE B   04     20.551  68.928   9.036  0.00  0.00    +0.077 A 
ATOM     10  N5  CHE B   04     15.379  68.296   4.298  0.00  0.00    -0.226 NA
ENDROOT
BRANCH   3  11
ATOM     11  N2  CHE B   04     21.030  69.191   4.587  0.00  0.00    -0.284 N 
ATOM     12  C9  CHE B   04     19.542  69.335   1.886  0.00  0.00    +0.127 A 
ATOM     13  C10 CHE B   04     19.828  69.200   2.978  0.00  0.00    +0.063 A 
ATOM     14  C11 CHE B   04     21.723  69.477   3.956  0.00  0.00    +0.116 A 
ATOM     15  N3  CHE B   04     25.989  69.977   6.832  0.00  0.00    -0.244 NA
ATOM     16  C12 CHE B   04     21.715  69.981   1.258  0.00  0.00    +0.223 A 
ATOM     17  N4  CHE B   04     23.843  69.849   4.729  0.00  0.00    -0.221 NA
ATOM     18  H7  CHE B   04     20.779  69.340   3.464  0.00  0.00    +0.155 HD
ENDBRANCH   3  11
BRANCH   1  24
ATOM     19  C1  CHE B   04     15.988  65.846   9.722  0.00  0.00    +0.065 C 
ATOM     20  C2  CHE B   04     14.504  65.573   5.747  0.00  0.00    +0.039 A 
ATOM     21  C3  CHE B   04     19.169  68.116  11.741  0.00  0.00    +0.023 A 
ATOM     22  C4  CHE B   04     20.428  69.228  11.712  0.00  0.00    +0.004 A 
ATOM     23  C5  CHE B   04     17.553  68.056   6.498  0.00  0.00    +0.031 A 
ATOM     24  C6  CHE B   04     19.024  68.681   9.066  0.00  0.00    +0.108 A 
ATOM     25  N6  CHE B   04     20.002  68.727  12.203  0.00  0.00    -0.249 NA
ENDBRANCH   1  24
TORSDOF 2
ENDMDL
MODEL 9
REMARK VINA RESULT:      -8.2      2.437      5.508
REMARK  Name = dock_mp/CHEMBL5/CHEMBL571452.pdb
REMARK  3 active torsions:
REMARK  status: ('A' for Active; 'I' for Inactive)
REMARK    1  A    between atoms: C1_1  and  C2_2
REMARK    2  A    between atoms: C6_6  and  C7_7
REMARK    3  A    between atoms: C8_9  and  N2_10
REMARK                            x       y       z     vdW  Elec       q    Type
REMARK                         _______ _______ _______ _____ _____    ______ ____
ROOT
ATOM      1  C7  CHE B   04     19.442  68.801   8.222  0.00  0.00    +0.181 A 
ATOM      2  N1  CHE B   04     22.502  69.971   8.324  0.00  0.00    -0.210 NA
ATOM      3  C8  CHE B   04     23.702  70.352   8.760  0.00  0.00    +0.136 A 
ATOM      4  C13 CHE B   04     18.424  67.970  10.435  0.00  0.00    +0.041 A 
ATOM      5  C14 CHE B   04     17.050  67.157  11.854  0.00  0.00    +0.013 A 
ATOM      6  C15 CHE B   04     20.174  68.764   9.855  0.00  0.00    +0.001 A 
ATOM      7  C16 CHE B   04     17.098  67.595   9.717  0.00  0.00    +0.002 A 
ATOM      8  C17 CHE B   04     18.459  68.409   8.270  0.00  0.00    +0.028 A 
ATOM      9  C18 CHE B   04     17.028  67.598   9.562  0.00  0.00    +0.077 A 
ATOM     10  N5  CHE B   04     22.594  70.407   6.287  0.00  0.00    -0.226 NA
ENDROOT
BRANCH   3  11
ATOM     11  N2  CHE B   04     20.909  68.728  11.498  0.00  0.00    -0.284 N 
ATOM     12  C9  CHE B   04     23.771  69.789  11.034  0.00  0.00    +0.127 A 
ATOM     13  C10 CHE B   04     22.689  69.462  10.923  0.00  0.00    +0.063 A 
ATOM     14  C11 CHE B   04     21.334  68.641  12.377  0.00  0.00    +0.116 A 
ATOM     15  N3  CHE B   04     17.658  66.649  15.416  0.00  0.00    -0.244 NA
ATOM     16  C12 CHE B   04     23.845  69.225  13.318  0.00  0.00    +0.223 A 
ATOM     17  N4  CHE B   04     20.117  67.793  14.118  0.00  0.00    -0.221 NA
ATOM     18  H7  CHE B   04     22.013  69.051  11.654  0.00  0.00    +0.155 HD
ENDBRANCH   3  11
BRANCH   1  24
ATOM     19  C1  CHE B   04     17.858  68.102   3.939  0.00  0.00    +0.065 C 
ATOM     20  C2  CHE B   04     21.833  69.600   3.777  0.00  0.00    +0.039 A 
ATOM     21  C3  CHE B   04     15.004  67.098   7.132  0.00  0.00    +0.023 A 
ATOM     22  C4  CHE B   04     14.597  66.982   8.758  0.00  0.00    +0.004 A 
ATOM     23  C5  CHE B   04     20.131  69.041   7.357  0.00  0.00    +0.031 A 
ATOM     24  C6  CHE B   04     17.386  68.021   8.117  0.00  0.00    +0.108 A 
ATOM     25  N6  CHE B   04     14.315  66.858   7.997  0.00  0.00    -0.249 NA
ENDBRANCH   1  24
TORSDOF 2
ENDMDL
MODEL 10
REMARK VINA RESULT:      -8.2      1.831      5.626
REMARK  Name = dock_mp/CHEMBL5/CHEMBL571452.pdb
REMARK  3 active torsions:
REMARK  status: ('A' for Active; 'I' for Inactive)
REMARK    1  A    between atoms: C1_1  and  C2_2
REMARK    2  A    between atoms: C6_6  and  C7_7
REMARK    3  A    between atoms: C8_9  and  N2_10
REMARK                            x       y       z     vdW  Elec       q    Type
REMARK                         _______ _______ _______ _____ _____    ______ ____
ROOT
ATOM      1  C7  CHE B   04     19.029  67.994   5.995  0.00  0.00    +0.181 A 
ATOM      2  N1  CHE B   04     16.486  66.659   7.574  0.00  0.00    -0.210 NA
ATOM      3  C8  CHE B   04     15.651  66.271   8.536  0.00  0.00    +0.136 A 
ATOM      4  C13 CHE B   04     20.795  69.209   7.420  0.00  0.00    +0.041 A 
ATOM      5  C14 CHE B   04     22.536  70.311   7.982  0.00  0.00    +0.013 A 
ATOM      6  C15 CHE B   04     19.080  68.227   7.769  0.00  0.00    +0.001 A 
ATOM      7  C16 CHE B   04     21.621  69.557   6.150  0.00  0.00    +0.002 A 
ATOM      8  C17 CHE B   04     19.879  68.451   5.557  0.00  0.00    +0.028 A 
ATOM      9  C18 CHE B   04     21.617  69.535   5.981  0.00  0.00    +0.077 A 
ATOM     10  N5  CHE B   04     15.575  65.919   5.850  0.00  0.00    -0.226 NA
ENDROOT
BRANCH   3  11
ATOM     11  N2  CHE B   04     19.130  68.461   9.553  0.00  0.00    -0.284 N 
ATOM     12  C9  CHE B   04     16.677  66.877  10.555  0.00  0.00    +0.127 A 
ATOM     13  C10 CHE B   04     17.469  67.395   9.926  0.00  0.00    +0.063 A 
ATOM     14  C11 CHE B   04     19.217  68.493  10.528  0.00  0.00    +0.116 A 
ATOM     15  N3  CHE B   04     23.528  71.216  11.373  0.00  0.00    -0.244 NA
ATOM     16  C12 CHE B   04     17.703  67.483  12.584  0.00  0.00    +0.223 A 
ATOM     17  N4  CHE B   04     20.993  69.601  11.450  0.00  0.00    -0.221 NA
ATOM     18  H7  CHE B   04     18.343  67.944  10.232  0.00  0.00    +0.155 HD
ENDBRANCH   3  11
BRANCH   1  24
ATOM     19  C1  CHE B   04     18.089  69.225   1.642  0.00  0.00    +0.065 C 
ATOM     20  C2  CHE B   04     14.619  67.561   3.450  0.00  0.00    +0.039 A 
ATOM     21  C3  CHE B   04     22.224  70.017   2.915  0.00  0.00    +0.023 A 
ATOM     22  C4  CHE B   04     23.439  69.977   4.074  0.00  0.00    +0.004 A 
ATOM     23  C5  CHE B   04     17.981  67.815   5.608  0.00  0.00    +0.031 A 
ATOM     24  C6  CHE B   04     20.723  68.879   4.902  0.00  0.00    +0.108 A 
ATOM     25  N6  CHE B   04     23.273  70.196   3.301  0.00  0.00    -0.249 NA
ENDBRANCH   1  24
TORSDOF 2
ENDMDL
