REMARK  Name = dock_mp/CHEMBL3/CHEMBL360034.pdb
REMARK  3 active torsions:
REMARK  status: ('A' for Active; 'I' for Inactive)
REMARK    1  A    between atoms: C1_1  and  C2_2
REMARK    2  A    between atoms: C6_6  and  C7_7
REMARK    3  A    between atoms: C9_12  and  C10_13
REMARK                            x       y       z     vdW  Elec       q    Type
REMARK                         _______ _______ _______ _____ _____    ______ ____
ROOT
ATOM      1  C7  CHE B   00      1.000  -1.180   4.000  0.00  0.00    +0.108 A 
ATOM      2  N1  CHE B   00      1.000  -1.960   5.000  0.00  0.00    -0.223 NA
ATOM      3  C8  CHE B   00      1.000  -1.500   4.000  0.00  0.00    +0.157 A 
ATOM      4  N2  CHE B   00      1.000  -2.150   9.000  0.00  0.00    -0.337 N 
ATOM      5  S1  CHE B   00      1.000   0.260   2.000  0.00  0.00    -0.050 S 
ATOM      6  C9  CHE B   00      1.000   0.140   7.000  0.00  0.00    +0.068 A 
ATOM      7  H7  CHE B   00      1.000  -1.820   7.000  0.00  0.00    +0.144 HD
ATOM      8  H8  CHE B   00      1.000  -2.940   5.000  0.00  0.00    +0.144 HD
ENDROOT
BRANCH   6   9
ATOM      9  C10 CHE B   00      1.000   1.280   2.000  0.00  0.00    +0.081 A 
ATOM     10  C11 CHE B   00      1.000   2.220   6.000  0.00  0.00    +0.031 A 
ATOM     11  C12 CHE B   00      1.000   3.290   9.000  0.00  0.00    +0.032 A 
ATOM     12  C13 CHE B   00      1.000   3.400   7.000  0.00  0.00    +0.089 A 
ATOM     13  N3  CHE B   00      1.000   4.450   8.000  0.00  0.00    -0.253 NA
ATOM     14  C14 CHE B   00      1.000   4.620   6.000  0.00  0.00    +0.111 A 
ATOM     15  C15 CHE B   00      1.000   3.670   8.000  0.00  0.00    +0.022 A 
ATOM     16  C16 CHE B   00      1.000   2.590   7.000  0.00  0.00    +0.031 A 
ATOM     17  C17 CHE B   00      1.000   2.460   9.000  0.00  0.00    +0.090 A 
ATOM     18  N4  CHE B   00      1.000   1.420   9.000  0.00  0.00    -0.245 NA
ENDBRANCH   6   9
BRANCH   1  24
ATOM     19  C1  CHE B   00      1.000  -3.910   7.000  0.00  0.00    +0.065 C 
ATOM     20  C2  CHE B   00      1.000  -3.040   3.000  0.00  0.00    +0.039 A 
ATOM     21  C3  CHE B   00      1.000  -2.750   4.000  0.00  0.00    +0.023 A 
ATOM     22  C4  CHE B   00      1.000  -1.940   7.000  0.00  0.00    +0.004 A 
ATOM     23  C5  CHE B   00      1.000  -1.440   5.000  0.00  0.00    +0.030 A 
ATOM     24  C6  CHE B   00      1.000  -1.730   7.000  0.00  0.00    +0.091 A 
ATOM     25  N5  CHE B   00      1.000  -2.520   1.000  0.00  0.00    -0.250 NA
ENDBRANCH   1  24
TORSDOF 2
