REMARK  Name = dock_mp/CHEMBL3/CHEMBL380916.pdb
REMARK  4 active torsions:
REMARK  status: ('A' for Active; 'I' for Inactive)
REMARK    1  A    between atoms: C1_2  and  C6_8
REMARK    2  A    between atoms: C9_11  and  C10_12
REMARK    3  A    between atoms: C12_14  and  C13_15
REMARK    4  A    between atoms: C15_19  and  C16_20
REMARK                            x       y       z     vdW  Elec       q    Type
REMARK                         _______ _______ _______ _____ _____    ______ ____
ROOT
ATOM      1  C10 CHE B   09      1.000   0.770   7.000  0.00  0.00    +0.072 A 
ATOM      2  C11 CHE B   09      1.000   1.660   3.000  0.00  0.00    +0.037 A 
ATOM      3  C12 CHE B   09      1.000   3.040   3.000  0.00  0.00    -0.011 A 
ATOM      4  C21 CHE B   09      1.000   3.510   6.000  0.00  0.00    +0.028 A 
ATOM      5  C22 CHE B   09      1.000   2.610   5.000  0.00  0.00    +0.112 A 
ATOM      6  N5  CHE B   09      1.000   1.270   8.000  0.00  0.00    -0.255 NA
ENDROOT
BRANCH   1  10
ATOM      7  C6  CHE B   09      1.000  -3.410   2.000  0.00  0.00    +0.037 A 
ATOM      8  C7  CHE B   09      1.000  -2.880   8.000  0.00  0.00    +0.014 A 
ATOM      9  C8  CHE B   09      1.000  -1.490   6.000  0.00  0.00    +0.011 A 
ATOM     10  C9  CHE B   09      1.000  -0.660   4.000  0.00  0.00    +0.000 A 
ATOM     11  C23 CHE B   09      1.000  -1.180   9.000  0.00  0.00    +0.011 A 
ATOM     12  C24 CHE B   09      1.000  -2.570   0.000  0.00  0.00    +0.014 A 
BRANCH   7  14
ATOM     13  O1  CHE B   09      1.000  -5.410   2.000  0.00  0.00    -0.270 OA
ATOM     14  C1  CHE B   09      1.000  -4.830   9.000  0.00  0.00    +0.247 C 
ATOM     15  N1  CHE B   09      1.000  -5.530   1.000  0.00  0.00    -0.298 N 
ATOM     16  C2  CHE B   09      1.000  -4.950   7.000  0.00  0.00    +0.108 C 
ATOM     17  C3  CHE B   09      1.000  -6.100   1.000  0.00  0.00    +0.020 C 
ATOM     18  C4  CHE B   09      1.000  -7.300   8.000  0.00  0.00    +0.020 C 
ATOM     19  C5  CHE B   09      1.000  -6.920   4.000  0.00  0.00    +0.108 C 
ENDBRANCH   7  14
ENDBRANCH   1  10
BRANCH   3  20
ATOM     20  C13 CHE B   09      1.000   3.950   6.000  0.00  0.00    +0.029 A 
ATOM     21  C14 CHE B   09      1.000   3.940   7.000  0.00  0.00    +0.114 A 
ATOM     22  N2  CHE B   09      1.000   5.000   0.000  0.00  0.00    -0.284 N 
ATOM     23  N3  CHE B   09      1.000   5.670   3.000  0.00  0.00    -0.172 NA
ATOM     24  C15 CHE B   09      1.000   5.060   6.000  0.00  0.00    +0.118 A 
ATOM     25  H13 CHE B   09      1.000   5.210   9.000  0.00  0.00    +0.188 HD
BRANCH  24  26
ATOM     26  C16 CHE B   09      1.000   5.410   7.000  0.00  0.00    +0.091 A 
ATOM     27  C17 CHE B   09      1.000   6.610   4.000  0.00  0.00    +0.030 A 
ATOM     28  C18 CHE B   09      1.000   6.800   0.000  0.00  0.00    +0.004 A 
ATOM     29  C19 CHE B   09      1.000   5.840   7.000  0.00  0.00    +0.020 A 
ATOM     30  C20 CHE B   09      1.000   4.650   9.000  0.00  0.00    +0.111 A 
ATOM     31  N4  CHE B   09      1.000   4.500   2.000  0.00  0.00    -0.253 NA
ENDBRANCH  24  26
ENDBRANCH   3  20
TORSDOF 4
