REMARK  Name = dock_mp/CHEMBL3/CHEMBL387747.pdb
REMARK  7 active torsions:
REMARK  status: ('A' for Active; 'I' for Inactive)
REMARK    1  A    between atoms: C1_1  and  C2_2
REMARK    2  A    between atoms: C6_6  and  C7_7
REMARK    3  A    between atoms: C8_9  and  C9_10
REMARK    4  A    between atoms: C9_10  and  N2_11
REMARK    5  A    between atoms: N2_11  and  C10_12
REMARK    6  A    between atoms: C14_16  and  C15_17
REMARK    7  A    between atoms: C17_21  and  C18_22
REMARK                            x       y       z     vdW  Elec       q    Type
REMARK                         _______ _______ _______ _____ _____    ______ ____
ROOT
ATOM      1  C7  CHE B   07      1.000  -0.680   9.000  0.00  0.00    +0.093 A 
ATOM      2  N1  CHE B   07      1.000   0.630   4.000  0.00  0.00    -0.339 N 
ATOM      3  C8  CHE B   07      1.000   1.260   6.000  0.00  0.00    +0.125 A 
ATOM      4  N4  CHE B   07      1.000   0.360   6.000  0.00  0.00    -0.230 NA
ATOM      5  C17 CHE B   07      1.000  -0.870   9.000  0.00  0.00    +0.098 A 
ATOM      6  H7  CHE B   07      1.000   1.090   6.000  0.00  0.00    +0.167 HD
ENDROOT
BRANCH   5   7
ATOM      7  C18 CHE B   07      1.000  -2.110   7.000  0.00  0.00    +0.006 A 
ATOM      8  C19 CHE B   07      1.000  -2.260   7.000  0.00  0.00    +0.014 A 
ATOM      9  C20 CHE B   07      1.000  -3.390   4.000  0.00  0.00    +0.050 A 
ATOM     10  C21 CHE B   07      1.000  -4.360   9.000  0.00  0.00    +0.166 A 
ATOM     11  O1  CHE B   07      1.000  -5.580   5.000  0.00  0.00    -0.453 OA
ATOM     12  C22 CHE B   07      1.000  -6.250   9.000  0.00  0.00    +0.466 C 
ATOM     13  O2  CHE B   07      1.000  -5.420   7.000  0.00  0.00    -0.453 OA
ATOM     14  C23 CHE B   07      1.000  -4.260   6.000  0.00  0.00    +0.167 A 
ATOM     15  C24 CHE B   07      1.000  -3.110   3.000  0.00  0.00    +0.059 A 
ENDBRANCH   5   7
BRANCH   1  21
ATOM     16  C1  CHE B   07      1.000  -2.520   9.000  0.00  0.00    +0.065 C 
ATOM     17  C2  CHE B   07      1.000  -2.570   4.000  0.00  0.00    +0.039 A 
ATOM     18  C3  CHE B   07      1.000  -3.560   0.000  0.00  0.00    +0.023 A 
ATOM     19  C4  CHE B   07      1.000  -3.570   3.000  0.00  0.00    +0.004 A 
ATOM     20  C5  CHE B   07      1.000  -2.660   7.000  0.00  0.00    +0.030 A 
ATOM     21  C6  CHE B   07      1.000  -1.700   4.000  0.00  0.00    +0.090 A 
ATOM     22  N5  CHE B   07      1.000  -1.690   2.000  0.00  0.00    -0.250 NA
ENDBRANCH   1  21
BRANCH   3  23
ATOM     23  C9  CHE B   07      1.000   2.730   9.000  0.00  0.00    +0.175 C 
BRANCH  23  24
ATOM     24  N2  CHE B   07      1.000   3.380   1.000  0.00  0.00    -0.337 N 
ATOM     25  H10 CHE B   07      1.000   2.810   1.000  0.00  0.00    +0.147 HD
BRANCH  24  26
ATOM     26  C10 CHE B   07      1.000   4.780   9.000  0.00  0.00    +0.029 A 
ATOM     27  C11 CHE B   07      1.000   5.360   6.000  0.00  0.00    +0.023 A 
ATOM     28  C12 CHE B   07      1.000   6.720   7.000  0.00  0.00    +0.003 A 
ATOM     29  C13 CHE B   07      1.000   7.510   9.000  0.00  0.00    +0.019 A 
ATOM     30  C14 CHE B   07      1.000   6.950   7.000  0.00  0.00    +0.054 A 
ATOM     31  C16 CHE B   07      1.000   5.600   2.000  0.00  0.00    +0.041 A 
BRANCH  30  32
ATOM     32  C15 CHE B   07      1.000   7.830   7.000  0.00  0.00    +0.099 C 
ATOM     33  N3  CHE B   07      1.000   8.530   5.000  0.00  0.00    -0.191 NA
ENDBRANCH  30  32
ENDBRANCH  24  26
ENDBRANCH  23  24
ENDBRANCH   3  23
TORSDOF 6
