REMARK  Name = dock_mp/CHEMBL3/CHEMBL378167.pdb
REMARK  6 active torsions:
REMARK  status: ('A' for Active; 'I' for Inactive)
REMARK    1  A    between atoms: N1_4  and  C4_5
REMARK    2  A    between atoms: C4_5  and  C5_6
REMARK    3  A    between atoms: C5_6  and  C6_7
REMARK    4  A    between atoms: C6_7  and  N2_8
REMARK    5  A    between atoms: C11_14  and  C12_15
REMARK    6  A    between atoms: C17_22  and  C18_23
REMARK                            x       y       z     vdW  Elec       q    Type
REMARK                         _______ _______ _______ _____ _____    ______ ____
ROOT
ATOM      1  N2  CHE B   01      1.000   1.430   4.000  0.00  0.00    -0.330 N 
ATOM      2  C7  CHE B   01      1.000   2.160   1.000  0.00  0.00    +0.200 A 
ATOM      3  N3  CHE B   01      1.000   1.410   0.000  0.00  0.00    -0.236 NA
ATOM      4  C8  CHE B   01      1.000   0.200   4.000  0.00  0.00    +0.089 A 
ATOM      5  C9  CHE B   01      1.000  -0.930   8.000  0.00  0.00    +0.030 A 
ATOM      6  C10 CHE B   01      1.000  -2.070   6.000  0.00  0.00    +0.011 A 
ATOM      7  C11 CHE B   01      1.000  -2.090   4.000  0.00  0.00    -0.012 A 
ATOM      8  C23 CHE B   01      1.000  -0.950   1.000  0.00  0.00    +0.036 A 
ATOM      9  C24 CHE B   01      1.000   0.180   1.000  0.00  0.00    +0.069 A 
ENDROOT
BRANCH   7  10
ATOM     10  C12 CHE B   01      1.000  -3.340   2.000  0.00  0.00    +0.032 A 
ATOM     11  C13 CHE B   01      1.000  -4.560   5.000  0.00  0.00    +0.048 A 
ATOM     12  C14 CHE B   01      1.000  -5.150   4.000  0.00  0.00    +0.057 C 
ATOM     13  C15 CHE B   01      1.000  -6.630   1.000  0.00  0.00    +0.029 C 
ATOM     14  C16 CHE B   01      1.000  -6.770   0.000  0.00  0.00    +0.144 C 
ATOM     15  N4  CHE B   01      1.000  -5.480   2.000  0.00  0.00    -0.267 N 
ATOM     16  N5  CHE B   01      1.000  -4.900   3.000  0.00  0.00    -0.169 NA
ATOM     17  C17 CHE B   01      1.000  -3.600   1.000  0.00  0.00    +0.119 A 
BRANCH  17  18
ATOM     18  C18 CHE B   01      1.000  -2.600   3.000  0.00  0.00    +0.091 A 
ATOM     19  C19 CHE B   01      1.000  -2.220   8.000  0.00  0.00    +0.030 A 
ATOM     20  C20 CHE B   01      1.000  -1.270   1.000  0.00  0.00    +0.004 A 
ATOM     21  C21 CHE B   01      1.000  -0.700   2.000  0.00  0.00    +0.020 A 
ATOM     22  C22 CHE B   01      1.000  -1.110   9.000  0.00  0.00    +0.111 A 
ATOM     23  N6  CHE B   01      1.000  -2.040   3.000  0.00  0.00    -0.253 NA
ENDBRANCH  17  18
ENDBRANCH   7  10
BRANCH   1  24
ATOM     24  C6  CHE B   01      1.000   1.870   6.000  0.00  0.00    +0.121 C 
BRANCH  24  25
ATOM     25  C5  CHE B   01      1.000   2.430   2.000  0.00  0.00    +0.003 C 
BRANCH  25  26
ATOM     26  C4  CHE B   01      1.000   3.600   5.000  0.00  0.00    -0.077 C 
BRANCH  26  30
ATOM     27  C1  CHE B   01      1.000   5.990   4.000  0.00  0.00    -0.020 C 
ATOM     28  C2  CHE B   01      1.000   5.360   2.000  0.00  0.00    -0.020 C 
ATOM     29  C3  CHE B   01      1.000   4.350   7.000  0.00  0.00    -0.079 C 
ATOM     30  N1  CHE B   01      1.000   4.080   5.000  0.00  0.00    +0.380 N 
ATOM     31  C25 CHE B   01      1.000   5.310   2.000  0.00  0.00    -0.079 C 
ATOM     32  H7  CHE B   01      1.000   3.390   4.000  0.00  0.00    -0.082 HD
ENDBRANCH  26  30
ENDBRANCH  25  26
ENDBRANCH  24  25
ENDBRANCH   1  24
TORSDOF 6
