REMARK  Name = dock_mp/CHEMBL3/CHEMBL382838.pdb
REMARK  3 active torsions:
REMARK  status: ('A' for Active; 'I' for Inactive)
REMARK    1  A    between atoms: C1_1  and  C2_2
REMARK    2  A    between atoms: C6_6  and  C7_7
REMARK    3  A    between atoms: C12_14  and  C13_15
REMARK                            x       y       z     vdW  Elec       q    Type
REMARK                         _______ _______ _______ _____ _____    ______ ____
ROOT
ATOM      1  C7  CHE B   08      1.000   1.120   4.000  0.00  0.00    +0.119 A 
ATOM      2  N1  CHE B   08      1.000   1.440   8.000  0.00  0.00    -0.169 NA
ATOM      3  N2  CHE B   08      1.000   0.370   7.000  0.00  0.00    -0.267 N 
ATOM      4  C8  CHE B   08      1.000   0.000   5.000  0.00  0.00    +0.144 C 
ATOM      5  C9  CHE B   08      1.000  -1.490   5.000  0.00  0.00    +0.029 C 
ATOM      6  C10 CHE B   08      1.000  -1.950   5.000  0.00  0.00    +0.057 C 
ATOM      7  C11 CHE B   08      1.000  -0.710   4.000  0.00  0.00    +0.048 A 
ATOM      8  C12 CHE B   08      1.000  -0.250   4.000  0.00  0.00    +0.032 A 
ENDROOT
BRANCH   8   9
ATOM      9  C13 CHE B   08      1.000  -1.050   0.000  0.00  0.00    -0.012 A 
ATOM     10  C14 CHE B   08      1.000  -0.940   8.000  0.00  0.00    +0.011 A 
ATOM     11  C15 CHE B   08      1.000  -1.670   3.000  0.00  0.00    +0.028 A 
ATOM     12  C16 CHE B   08      1.000  -2.510   7.000  0.00  0.00    +0.066 A 
ATOM     13  N3  CHE B   08      1.000  -3.320   7.000  0.00  0.00    -0.344 N 
ATOM     14  C17 CHE B   08      1.000  -3.920   6.000  0.00  0.00    +0.197 A 
ATOM     15  N4  CHE B   08      1.000  -3.470   9.000  0.00  0.00    -0.236 NA
ATOM     16  C18 CHE B   08      1.000  -2.600   2.000  0.00  0.00    +0.089 A 
ATOM     17  C19 CHE B   08      1.000  -1.890   6.000  0.00  0.00    +0.038 A 
ATOM     18  H15 CHE B   08      1.000  -3.480   4.000  0.00  0.00    +0.167 HD
ENDBRANCH   8   9
BRANCH   1  24
ATOM     19  C1  CHE B   08      1.000   3.690   7.000  0.00  0.00    +0.065 C 
ATOM     20  C2  CHE B   08      1.000   3.290   6.000  0.00  0.00    +0.039 A 
ATOM     21  C3  CHE B   08      1.000   3.790   5.000  0.00  0.00    +0.023 A 
ATOM     22  C4  CHE B   08      1.000   3.380   7.000  0.00  0.00    +0.004 A 
ATOM     23  C5  CHE B   08      1.000   2.510   9.000  0.00  0.00    +0.030 A 
ATOM     24  C6  CHE B   08      1.000   2.040   6.000  0.00  0.00    +0.092 A 
ATOM     25  N5  CHE B   08      1.000   2.450   1.000  0.00  0.00    -0.250 NA
ENDBRANCH   1  24
TORSDOF 2
