REMARK  Name = dock_mp/CHEMBL3/CHEMBL340203.pdb
REMARK  2 active torsions:
REMARK  status: ('A' for Active; 'I' for Inactive)
REMARK    1  A    between atoms: C4_5  and  C5_6
REMARK    2  A    between atoms: C7_10  and  C8_11
REMARK                            x       y       z     vdW  Elec       q    Type
REMARK                         _______ _______ _______ _____ _____    ______ ____
ROOT
ATOM      1  C5  CHE B   02      1.000  -1.520   0.000  0.00  0.00    +0.118 A 
ATOM      2  N1  CHE B   02      1.000  -1.910   3.000  0.00  0.00    -0.172 NA
ATOM      3  N2  CHE B   02      1.000  -0.930   1.000  0.00  0.00    -0.284 N 
ATOM      4  C6  CHE B   02      1.000   0.120   8.000  0.00  0.00    +0.114 A 
ATOM      5  C7  CHE B   02      1.000  -0.230   8.000  0.00  0.00    +0.029 A 
ATOM      6  H3  CHE B   02      1.000  -0.910   1.000  0.00  0.00    +0.188 HD
ENDROOT
BRANCH   5   7
ATOM      7  C8  CHE B   02      1.000   0.650   4.000  0.00  0.00    -0.004 A 
ATOM      8  C9  CHE B   02      1.000   0.360   9.000  0.00  0.00    +0.029 A 
ATOM      9  C10 CHE B   02      1.000   1.210   5.000  0.00  0.00    +0.112 A 
ATOM     10  N3  CHE B   02      1.000   2.340   6.000  0.00  0.00    -0.255 NA
ATOM     11  C11 CHE B   02      1.000   2.650   2.000  0.00  0.00    +0.072 A 
ATOM     12  C12 CHE B   02      1.000   3.820   3.000  0.00  0.00    +0.028 A 
ATOM     13  C13 CHE B   02      1.000   4.150   1.000  0.00  0.00    +0.002 A 
ATOM     14  C14 CHE B   02      1.000   3.320   6.000  0.00  0.00    +0.001 A 
ATOM     15  C15 CHE B   02      1.000   2.150   0.000  0.00  0.00    +0.010 A 
ATOM     16  C16 CHE B   02      1.000   1.820   6.000  0.00  0.00    +0.008 A 
ENDBRANCH   5   7
BRANCH   1  21
ATOM     17  F1  CHE B   02      1.000  -4.630   5.000  0.00  0.00    -0.204 F 
ATOM     18  C1  CHE B   02      1.000  -3.860   6.000  0.00  0.00    +0.141 A 
ATOM     19  C2  CHE B   02      1.000  -3.540   4.000  0.00  0.00    +0.042 A 
ATOM     20  C3  CHE B   02      1.000  -2.750   8.000  0.00  0.00    +0.033 A 
ATOM     21  C4  CHE B   02      1.000  -2.330   3.000  0.00  0.00    +0.092 A 
ATOM     22  N4  CHE B   02      1.000  -2.670   5.000  0.00  0.00    -0.251 NA
ATOM     23  C17 CHE B   02      1.000  -3.430   2.000  0.00  0.00    +0.149 A 
ENDBRANCH   1  21
TORSDOF 2
