REMARK  Name = dock_mp/CHEMBL3/CHEMBL389078.pdb
REMARK  7 active torsions:
REMARK  status: ('A' for Active; 'I' for Inactive)
REMARK    1  A    between atoms: C1_1  and  C2_2
REMARK    2  A    between atoms: C6_6  and  C7_7
REMARK    3  A    between atoms: C8_9  and  C9_10
REMARK    4  A    between atoms: C9_10  and  N2_11
REMARK    5  A    between atoms: N2_11  and  C10_12
REMARK    6  A    between atoms: C14_16  and  C15_17
REMARK    7  A    between atoms: C17_22  and  C18_23
REMARK                            x       y       z     vdW  Elec       q    Type
REMARK                         _______ _______ _______ _____ _____    ______ ____
ROOT
ATOM      1  C7  CHE B   00      1.000  -0.910   3.000  0.00  0.00    +0.093 A 
ATOM      2  N1  CHE B   00      1.000   0.260   3.000  0.00  0.00    -0.339 N 
ATOM      3  C8  CHE B   00      1.000   0.960   1.000  0.00  0.00    +0.125 A 
ATOM      4  N4  CHE B   00      1.000   0.210   3.000  0.00  0.00    -0.230 NA
ATOM      5  C17 CHE B   00      1.000  -0.930   5.000  0.00  0.00    +0.098 A 
ATOM      6  H7  CHE B   00      1.000   0.500   4.000  0.00  0.00    +0.167 HD
ENDROOT
BRANCH   5   7
ATOM      7  C18 CHE B   00      1.000  -2.020   2.000  0.00  0.00    +0.006 A 
ATOM      8  C19 CHE B   00      1.000  -2.690   7.000  0.00  0.00    +0.014 A 
ATOM      9  C20 CHE B   00      1.000  -3.730   5.000  0.00  0.00    +0.050 A 
ATOM     10  C21 CHE B   00      1.000  -4.090   4.000  0.00  0.00    +0.166 A 
ATOM     11  O2  CHE B   00      1.000  -5.090   2.000  0.00  0.00    -0.453 OA
ATOM     12  C22 CHE B   00      1.000  -5.160   5.000  0.00  0.00    +0.466 C 
ATOM     13  O3  CHE B   00      1.000  -4.000   2.000  0.00  0.00    -0.453 OA
ATOM     14  C23 CHE B   00      1.000  -3.420   9.000  0.00  0.00    +0.167 A 
ATOM     15  C24 CHE B   00      1.000  -2.380   4.000  0.00  0.00    +0.059 A 
ENDBRANCH   5   7
BRANCH   1  21
ATOM     16  C1  CHE B   00      1.000  -2.390   6.000  0.00  0.00    +0.065 C 
ATOM     17  C2  CHE B   00      1.000  -2.710   1.000  0.00  0.00    +0.039 A 
ATOM     18  C3  CHE B   00      1.000  -3.980   3.000  0.00  0.00    +0.023 A 
ATOM     19  C4  CHE B   00      1.000  -4.250   0.000  0.00  0.00    +0.004 A 
ATOM     20  C5  CHE B   00      1.000  -3.220   4.000  0.00  0.00    +0.030 A 
ATOM     21  C6  CHE B   00      1.000  -1.950   5.000  0.00  0.00    +0.090 A 
ATOM     22  N5  CHE B   00      1.000  -1.730   4.000  0.00  0.00    -0.250 NA
ENDBRANCH   1  21
BRANCH   3  23
ATOM     23  C9  CHE B   00      1.000   2.280   0.000  0.00  0.00    +0.175 C 
BRANCH  23  24
ATOM     24  N2  CHE B   00      1.000   3.350   1.000  0.00  0.00    -0.337 N 
ATOM     25  H10 CHE B   00      1.000   3.780   2.000  0.00  0.00    +0.147 HD
BRANCH  24  26
ATOM     26  C10 CHE B   00      1.000   3.890   7.000  0.00  0.00    +0.028 A 
ATOM     27  C11 CHE B   00      1.000   3.520   1.000  0.00  0.00    +0.023 A 
ATOM     28  C12 CHE B   00      1.000   4.080   9.000  0.00  0.00    +0.003 A 
ATOM     29  C13 CHE B   00      1.000   5.060   2.000  0.00  0.00    +0.013 A 
ATOM     30  C14 CHE B   00      1.000   5.460   5.000  0.00  0.00    +0.038 A 
ATOM     31  C16 CHE B   00      1.000   4.890   6.000  0.00  0.00    +0.036 A 
BRANCH  30  32
ATOM     32  C15 CHE B   00      1.000   6.500   6.000  0.00  0.00    +0.242 C 
ATOM     33  O1  CHE B   00      1.000   6.980   9.000  0.00  0.00    -0.270 OA
ATOM     34  N3  CHE B   00      1.000   6.920   7.000  0.00  0.00    -0.325 N 
ATOM     35  H14 CHE B   00      1.000   7.060   2.000  0.00  0.00    +0.145 HD
ATOM     36  H15 CHE B   00      1.000   7.100   1.000  0.00  0.00    +0.145 HD
ENDBRANCH  30  32
ENDBRANCH  24  26
ENDBRANCH  23  24
ENDBRANCH   3  23
TORSDOF 6
