REMARK  Name = dock_mp/CHEMBL3/CHEMBL379700.pdb
REMARK  7 active torsions:
REMARK  status: ('A' for Active; 'I' for Inactive)
REMARK    1  A    between atoms: C4_4  and  C5_5
REMARK    2  A    between atoms: C5_5  and  C6_6
REMARK    3  A    between atoms: C6_6  and  O1_7
REMARK    4  A    between atoms: O1_7  and  C7_8
REMARK    5  A    between atoms: C10_11  and  C11_12
REMARK    6  A    between atoms: C13_14  and  C14_15
REMARK    7  A    between atoms: C16_19  and  C17_20
REMARK                            x       y       z     vdW  Elec       q    Type
REMARK                         _______ _______ _______ _____ _____    ______ ____
ROOT
ATOM      1  C11 CHE B   07      1.000  -2.250   5.000  0.00  0.00    +0.072 A 
ATOM      2  C12 CHE B   07      1.000  -3.370   0.000  0.00  0.00    +0.037 A 
ATOM      3  C13 CHE B   07      1.000  -4.650   8.000  0.00  0.00    -0.011 A 
ATOM      4  C22 CHE B   07      1.000  -4.780   4.000  0.00  0.00    +0.028 A 
ATOM      5  C23 CHE B   07      1.000  -3.660   9.000  0.00  0.00    +0.112 A 
ATOM      6  N4  CHE B   07      1.000  -2.450   6.000  0.00  0.00    -0.255 NA
ENDROOT
BRANCH   1  10
ATOM      7  C7  CHE B   07      1.000   1.760   0.000  0.00  0.00    +0.121 A 
ATOM      8  C8  CHE B   07      1.000   0.650   9.000  0.00  0.00    +0.046 A 
ATOM      9  C9  CHE B   07      1.000  -0.620   5.000  0.00  0.00    +0.013 A 
ATOM     10  C10 CHE B   07      1.000  -0.900   0.000  0.00  0.00    +0.001 A 
ATOM     11  C24 CHE B   07      1.000   0.150   0.000  0.00  0.00    +0.013 A 
ATOM     12  C25 CHE B   07      1.000   1.450   0.000  0.00  0.00    +0.046 A 
BRANCH   7  13
ATOM     13  O1  CHE B   07      1.000   2.970   3.000  0.00  0.00    -0.492 OA
BRANCH  13  14
ATOM     14  C6  CHE B   07      1.000   4.260   2.000  0.00  0.00    +0.229 C 
BRANCH  14  15
ATOM     15  C5  CHE B   07      1.000   4.430   2.000  0.00  0.00    +0.044 C 
BRANCH  15  19
ATOM     16  C1  CHE B   07      1.000   7.920   7.000  0.00  0.00    +0.000 C 
ATOM     17  C2  CHE B   07      1.000   7.090   2.000  0.00  0.00    +0.000 C 
ATOM     18  C3  CHE B   07      1.000   6.210   7.000  0.00  0.00    +0.003 C 
ATOM     19  C4  CHE B   07      1.000   5.800   4.000  0.00  0.00    -0.008 C 
ATOM     20  C26 CHE B   07      1.000   6.800   6.000  0.00  0.00    +0.003 C 
ATOM     21  C27 CHE B   07      1.000   8.130   8.000  0.00  0.00    +0.000 C 
ENDBRANCH  15  19
ENDBRANCH  14  15
ENDBRANCH  13  14
ENDBRANCH   7  13
ENDBRANCH   1  10
BRANCH   3  22
ATOM     22  C14 CHE B   07      1.000  -5.790   0.000  0.00  0.00    +0.029 A 
ATOM     23  C15 CHE B   07      1.000  -6.010   7.000  0.00  0.00    +0.114 A 
ATOM     24  N1  CHE B   07      1.000  -7.160   0.000  0.00  0.00    -0.284 N 
ATOM     25  N2  CHE B   07      1.000  -7.670   6.000  0.00  0.00    -0.172 NA
ATOM     26  C16 CHE B   07      1.000  -6.830   7.000  0.00  0.00    +0.118 A 
ATOM     27  H16 CHE B   07      1.000  -7.570   6.000  0.00  0.00    +0.188 HD
BRANCH  26  28
ATOM     28  C17 CHE B   07      1.000  -7.090   4.000  0.00  0.00    +0.091 A 
ATOM     29  C18 CHE B   07      1.000  -7.140   7.000  0.00  0.00    +0.030 A 
ATOM     30  C19 CHE B   07      1.000  -7.380   7.000  0.00  0.00    +0.004 A 
ATOM     31  C20 CHE B   07      1.000  -7.570   8.000  0.00  0.00    +0.020 A 
ATOM     32  C21 CHE B   07      1.000  -7.520   5.000  0.00  0.00    +0.111 A 
ATOM     33  N3  CHE B   07      1.000  -7.280   6.000  0.00  0.00    -0.253 NA
ENDBRANCH  26  28
ENDBRANCH   3  22
TORSDOF 7
