REMARK  Name = dock_mp/CHEMBL3/CHEMBL381532.pdb
REMARK  7 active torsions:
REMARK  status: ('A' for Active; 'I' for Inactive)
REMARK    1  A    between atoms: C1_1  and  C2_2
REMARK    2  A    between atoms: C6_6  and  C7_7
REMARK    3  A    between atoms: C12_14  and  C13_15
REMARK    4  A    between atoms: N4_21  and  C18_22
REMARK    5  A    between atoms: C18_22  and  C19_23
REMARK    6  A    between atoms: C19_23  and  C20_24
REMARK    7  A    between atoms: C20_24  and  N5_25
REMARK                            x       y       z     vdW  Elec       q    Type
REMARK                         _______ _______ _______ _____ _____    ______ ____
ROOT
ATOM      1  C13 CHE B   05      1.000  -1.940   3.000  0.00  0.00    -0.012 A 
ATOM      2  C14 CHE B   05      1.000  -2.010   6.000  0.00  0.00    +0.011 A 
ATOM      3  C15 CHE B   05      1.000  -0.940   6.000  0.00  0.00    +0.030 A 
ATOM      4  C16 CHE B   05      1.000   0.220   7.000  0.00  0.00    +0.089 A 
ATOM      5  N3  CHE B   05      1.000   1.380   7.000  0.00  0.00    -0.236 NA
ATOM      6  C17 CHE B   05      1.000   2.160   0.000  0.00  0.00    +0.200 A 
ATOM      7  N4  CHE B   05      1.000   1.540   1.000  0.00  0.00    -0.330 N 
ATOM      8  C25 CHE B   05      1.000   0.310   4.000  0.00  0.00    +0.069 A 
ATOM      9  C26 CHE B   05      1.000  -0.760   9.000  0.00  0.00    +0.036 A 
ENDROOT
BRANCH   1  17
ATOM     10  C7  CHE B   05      1.000  -3.940   5.000  0.00  0.00    +0.119 A 
ATOM     11  N1  CHE B   05      1.000  -4.870   1.000  0.00  0.00    -0.169 NA
ATOM     12  N2  CHE B   05      1.000  -4.610   4.000  0.00  0.00    -0.267 N 
ATOM     13  C8  CHE B   05      1.000  -5.160   8.000  0.00  0.00    +0.144 C 
ATOM     14  C9  CHE B   05      1.000  -4.430   2.000  0.00  0.00    +0.029 C 
ATOM     15  C10 CHE B   05      1.000  -3.230   2.000  0.00  0.00    +0.057 C 
ATOM     16  C11 CHE B   05      1.000  -3.550   2.000  0.00  0.00    +0.048 A 
ATOM     17  C12 CHE B   05      1.000  -3.090   6.000  0.00  0.00    +0.032 A 
BRANCH  10  23
ATOM     18  C1  CHE B   05      1.000  -6.380   3.000  0.00  0.00    +0.065 C 
ATOM     19  C2  CHE B   05      1.000  -5.180   3.000  0.00  0.00    +0.039 A 
ATOM     20  C3  CHE B   05      1.000  -4.220   2.000  0.00  0.00    +0.023 A 
ATOM     21  C4  CHE B   05      1.000  -3.120   2.000  0.00  0.00    +0.004 A 
ATOM     22  C5  CHE B   05      1.000  -2.990   9.000  0.00  0.00    +0.030 A 
ATOM     23  C6  CHE B   05      1.000  -3.960   5.000  0.00  0.00    +0.092 A 
ATOM     24  N6  CHE B   05      1.000  -5.030   5.000  0.00  0.00    -0.250 NA
ENDBRANCH  10  23
ENDBRANCH   1  17
BRANCH   7  25
ATOM     25  C18 CHE B   05      1.000   2.030   6.000  0.00  0.00    +0.121 C 
BRANCH  25  26
ATOM     26  C19 CHE B   05      1.000   2.730   2.000  0.00  0.00    +0.003 C 
BRANCH  26  27
ATOM     27  C20 CHE B   05      1.000   3.940   0.000  0.00  0.00    -0.077 C 
BRANCH  27  28
ATOM     28  N5  CHE B   05      1.000   5.030   2.000  0.00  0.00    +0.383 N 
ATOM     29  C21 CHE B   05      1.000   5.300   3.000  0.00  0.00    -0.050 C 
ATOM     30  C22 CHE B   05      1.000   6.500   0.000  0.00  0.00    +0.141 C 
ATOM     31  O1  CHE B   05      1.000   7.220   8.000  0.00  0.00    -0.383 OA
ATOM     32  C23 CHE B   05      1.000   7.490   1.000  0.00  0.00    +0.141 C 
ATOM     33  C24 CHE B   05      1.000   6.200   1.000  0.00  0.00    -0.050 C 
ATOM     34  H22 CHE B   05      1.000   4.970   0.000  0.00  0.00    -0.082 HD
ENDBRANCH  27  28
ENDBRANCH  26  27
ENDBRANCH  25  26
ENDBRANCH   7  25
TORSDOF 6
