REMARK  Name = dock_mp/CHEMBL3/CHEMBL330814.pdb
REMARK  4 active torsions:
REMARK  status: ('A' for Active; 'I' for Inactive)
REMARK    1  A    between atoms: C1_1  and  C2_2
REMARK    2  A    between atoms: C6_6  and  C7_7
REMARK    3  A    between atoms: C12_14  and  C13_15
REMARK    4  A    between atoms: C16_18  and  O1_19
REMARK                            x       y       z     vdW  Elec       q    Type
REMARK                         _______ _______ _______ _____ _____    ______ ____
ROOT
ATOM      1  C7  CHE B   08      1.000   0.570   6.000  0.00  0.00    +0.119 A 
ATOM      2  N1  CHE B   08      1.000   0.580   5.000  0.00  0.00    -0.169 NA
ATOM      3  N2  CHE B   08      1.000  -0.640   5.000  0.00  0.00    -0.267 N 
ATOM      4  C8  CHE B   08      1.000  -1.360   6.000  0.00  0.00    +0.144 C 
ATOM      5  C9  CHE B   08      1.000  -2.780   8.000  0.00  0.00    +0.029 C 
ATOM      6  C10 CHE B   08      1.000  -2.820   6.000  0.00  0.00    +0.057 C 
ATOM      7  C11 CHE B   08      1.000  -1.450   0.000  0.00  0.00    +0.048 A 
ATOM      8  C12 CHE B   08      1.000  -0.670   4.000  0.00  0.00    +0.032 A 
ENDROOT
BRANCH   1  14
ATOM      9  C1  CHE B   08      1.000   5.050   9.000  0.00  0.00    +0.065 C 
ATOM     10  C2  CHE B   08      1.000   3.900   1.000  0.00  0.00    +0.039 A 
ATOM     11  C3  CHE B   08      1.000   3.960   2.000  0.00  0.00    +0.023 A 
ATOM     12  C4  CHE B   08      1.000   2.940   5.000  0.00  0.00    +0.004 A 
ATOM     13  C5  CHE B   08      1.000   1.790   9.000  0.00  0.00    +0.030 A 
ATOM     14  C6  CHE B   08      1.000   1.730   8.000  0.00  0.00    +0.092 A 
ATOM     15  N3  CHE B   08      1.000   2.770   7.000  0.00  0.00    -0.250 NA
ENDBRANCH   1  14
BRANCH   8  16
ATOM     16  C13 CHE B   08      1.000  -1.190   7.000  0.00  0.00    -0.014 A 
ATOM     17  C14 CHE B   08      1.000  -2.210   0.000  0.00  0.00    +0.012 A 
ATOM     18  C15 CHE B   08      1.000  -2.720   0.000  0.00  0.00    +0.046 A 
ATOM     19  C16 CHE B   08      1.000  -2.240   8.000  0.00  0.00    +0.117 A 
ATOM     20  C17 CHE B   08      1.000  -1.240   8.000  0.00  0.00    +0.046 A 
ATOM     21  C18 CHE B   08      1.000  -0.750   5.000  0.00  0.00    +0.012 A 
BRANCH  19  22
ATOM     22  O1  CHE B   08      1.000  -2.740   8.000  0.00  0.00    -0.507 OA
ATOM     23  H15 CHE B   08      1.000  -3.230   3.000  0.00  0.00    +0.292 HD
ENDBRANCH  19  22
ENDBRANCH   8  16
TORSDOF 3
