REMARK  Name = dock_mp/CHEMBL3/CHEMBL387748.pdb
REMARK  7 active torsions:
REMARK  status: ('A' for Active; 'I' for Inactive)
REMARK    1  A    between atoms: C1_1  and  C2_2
REMARK    2  A    between atoms: C6_6  and  C7_7
REMARK    3  A    between atoms: C8_9  and  C9_10
REMARK    4  A    between atoms: C9_10  and  N2_11
REMARK    5  A    between atoms: N2_11  and  C10_12
REMARK    6  A    between atoms: C14_16  and  C15_17
REMARK    7  A    between atoms: C17_21  and  C18_22
REMARK                            x       y       z     vdW  Elec       q    Type
REMARK                         _______ _______ _______ _____ _____    ______ ____
ROOT
ATOM      1  C7  CHE B   07      1.000  -0.320   6.000  0.00  0.00    +0.093 A 
ATOM      2  N1  CHE B   07      1.000   0.720   8.000  0.00  0.00    -0.339 N 
ATOM      3  C8  CHE B   07      1.000   1.370   8.000  0.00  0.00    +0.125 A 
ATOM      4  N4  CHE B   07      1.000   0.680   6.000  0.00  0.00    -0.230 NA
ATOM      5  C17 CHE B   07      1.000  -0.350   9.000  0.00  0.00    +0.098 A 
ATOM      6  H7  CHE B   07      1.000   1.020   8.000  0.00  0.00    +0.167 HD
ENDROOT
BRANCH   5   7
ATOM      7  C18 CHE B   07      1.000  -1.310   6.000  0.00  0.00    +0.005 A 
ATOM      8  C19 CHE B   07      1.000  -1.400   5.000  0.00  0.00    +0.012 A 
ATOM      9  C20 CHE B   07      1.000  -2.350   3.000  0.00  0.00    +0.030 A 
ATOM     10  C21 CHE B   07      1.000  -3.210   4.000  0.00  0.00    +0.089 A 
ATOM     11  N5  CHE B   07      1.000  -4.150   3.000  0.00  0.00    -0.252 NA
ATOM     12  C22 CHE B   07      1.000  -4.990   2.000  0.00  0.00    +0.131 A 
ATOM     13  C23 CHE B   07      1.000  -4.910   3.000  0.00  0.00    +0.131 A 
ATOM     14  N6  CHE B   07      1.000  -3.970   9.000  0.00  0.00    -0.252 NA
ATOM     15  C24 CHE B   07      1.000  -3.150   6.000  0.00  0.00    +0.090 A 
ATOM     16  C25 CHE B   07      1.000  -2.190   3.000  0.00  0.00    +0.040 A 
ENDBRANCH   5   7
BRANCH   1  22
ATOM     17  C1  CHE B   07      1.000  -3.740   2.000  0.00  0.00    +0.065 C 
ATOM     18  C2  CHE B   07      1.000  -2.870   7.000  0.00  0.00    +0.039 A 
ATOM     19  C3  CHE B   07      1.000  -2.940   7.000  0.00  0.00    +0.023 A 
ATOM     20  C4  CHE B   07      1.000  -2.130   6.000  0.00  0.00    +0.004 A 
ATOM     21  C5  CHE B   07      1.000  -1.290   1.000  0.00  0.00    +0.030 A 
ATOM     22  C6  CHE B   07      1.000  -1.210   2.000  0.00  0.00    +0.090 A 
ATOM     23  N7  CHE B   07      1.000  -2.020   5.000  0.00  0.00    -0.250 NA
ENDBRANCH   1  22
BRANCH   3  24
ATOM     24  C9  CHE B   07      1.000   2.580   0.000  0.00  0.00    +0.175 C 
BRANCH  24  25
ATOM     25  N2  CHE B   07      1.000   3.770   8.000  0.00  0.00    -0.337 N 
ATOM     26  H10 CHE B   07      1.000   4.300   0.000  0.00  0.00    +0.147 HD
BRANCH  25  27
ATOM     27  C10 CHE B   07      1.000   4.340   0.000  0.00  0.00    +0.029 A 
ATOM     28  C11 CHE B   07      1.000   3.850   5.000  0.00  0.00    +0.023 A 
ATOM     29  C12 CHE B   07      1.000   4.420   9.000  0.00  0.00    +0.003 A 
ATOM     30  C13 CHE B   07      1.000   5.540   9.000  0.00  0.00    +0.019 A 
ATOM     31  C14 CHE B   07      1.000   6.050   9.000  0.00  0.00    +0.054 A 
ATOM     32  C16 CHE B   07      1.000   5.470   6.000  0.00  0.00    +0.041 A 
BRANCH  31  33
ATOM     33  C15 CHE B   07      1.000   7.230   4.000  0.00  0.00    +0.099 C 
ATOM     34  N3  CHE B   07      1.000   8.160   8.000  0.00  0.00    -0.191 NA
ENDBRANCH  31  33
ENDBRANCH  25  27
ENDBRANCH  24  25
ENDBRANCH   3  24
TORSDOF 6
