REMARK  Name = dock_mp/CHEMBL3/CHEMBL341280.pdb
REMARK  2 active torsions:
REMARK  status: ('A' for Active; 'I' for Inactive)
REMARK    1  A    between atoms: C5_6  and  C6_7
REMARK    2  A    between atoms: C8_11  and  C9_12
REMARK                            x       y       z     vdW  Elec       q    Type
REMARK                         _______ _______ _______ _____ _____    ______ ____
ROOT
ATOM      1  C6  CHE B   02      1.000  -1.010   4.000  0.00  0.00    +0.092 A 
ATOM      2  N1  CHE B   02      1.000  -1.120   3.000  0.00  0.00    -0.275 N 
ATOM      3  N2  CHE B   02      1.000   0.000   3.000  0.00  0.00    -0.181 NA
ATOM      4  C7  CHE B   02      1.000   0.870   5.000  0.00  0.00    +0.143 A 
ATOM      5  C8  CHE B   02      1.000   0.250   3.000  0.00  0.00    +0.029 A 
ATOM      6  H4  CHE B   02      1.000  -1.960   1.000  0.00  0.00    +0.189 HD
ENDROOT
BRANCH   5   7
ATOM      7  C9  CHE B   02      1.000   0.750   3.000  0.00  0.00    -0.004 A 
ATOM      8  C10 CHE B   02      1.000   0.130   5.000  0.00  0.00    +0.029 A 
ATOM      9  C11 CHE B   02      1.000   0.570   7.000  0.00  0.00    +0.112 A 
ATOM     10  N3  CHE B   02      1.000   1.600   3.000  0.00  0.00    -0.255 NA
ATOM     11  C12 CHE B   02      1.000   2.200   2.000  0.00  0.00    +0.072 A 
ATOM     12  C13 CHE B   02      1.000   3.260   1.000  0.00  0.00    +0.028 A 
ATOM     13  C14 CHE B   02      1.000   3.910   4.000  0.00  0.00    +0.002 A 
ATOM     14  C15 CHE B   02      1.000   3.470   7.000  0.00  0.00    +0.001 A 
ATOM     15  C16 CHE B   02      1.000   2.430   1.000  0.00  0.00    +0.010 A 
ATOM     16  C17 CHE B   02      1.000   1.820   4.000  0.00  0.00    +0.008 A 
ENDBRANCH   5   7
BRANCH   1  22
ATOM     17 BR1  CHE B   02      1.000  -2.250   0.000  0.00  0.00    -0.029 Br
ATOM     18  C1  CHE B   02      1.000  -2.640   8.000  0.00  0.00    +0.107 A 
ATOM     19  C2  CHE B   02      1.000  -3.820   9.000  0.00  0.00    +0.035 A 
ATOM     20  C3  CHE B   02      1.000  -4.140   5.000  0.00  0.00    +0.005 A 
ATOM     21  C4  CHE B   02      1.000  -3.200   9.000  0.00  0.00    +0.030 A 
ATOM     22  C5  CHE B   02      1.000  -2.040   8.000  0.00  0.00    +0.090 A 
ATOM     23  N4  CHE B   02      1.000  -1.760   4.000  0.00  0.00    -0.238 NA
ENDBRANCH   1  22
TORSDOF 2
