REMARK  Name = dock_mp/CHEMBL3/CHEMBL377711.pdb
REMARK  7 active torsions:
REMARK  status: ('A' for Active; 'I' for Inactive)
REMARK    1  A    between atoms: C1_1  and  C2_2
REMARK    2  A    between atoms: C6_6  and  C7_7
REMARK    3  A    between atoms: C12_14  and  C13_15
REMARK    4  A    between atoms: N4_21  and  C18_22
REMARK    5  A    between atoms: C18_22  and  C19_23
REMARK    6  A    between atoms: C19_23  and  C20_24
REMARK    7  A    between atoms: C20_24  and  N5_25
REMARK                            x       y       z     vdW  Elec       q    Type
REMARK                         _______ _______ _______ _____ _____    ______ ____
ROOT
ATOM      1  C13 CHE B   07      1.000  -2.260   9.000  0.00  0.00    -0.012 A 
ATOM      2  C14 CHE B   07      1.000  -2.410   5.000  0.00  0.00    +0.011 A 
ATOM      3  C15 CHE B   07      1.000  -1.310   8.000  0.00  0.00    +0.030 A 
ATOM      4  C16 CHE B   07      1.000  -0.070   8.000  0.00  0.00    +0.089 A 
ATOM      5  N3  CHE B   07      1.000   1.150   6.000  0.00  0.00    -0.236 NA
ATOM      6  C17 CHE B   07      1.000   2.070   1.000  0.00  0.00    +0.200 A 
ATOM      7  N4  CHE B   07      1.000   1.420   0.000  0.00  0.00    -0.330 N 
ATOM      8  C26 CHE B   07      1.000   0.090   0.000  0.00  0.00    +0.069 A 
ATOM      9  C27 CHE B   07      1.000  -1.010   0.000  0.00  0.00    +0.036 A 
ENDROOT
BRANCH   1  17
ATOM     10  C7  CHE B   07      1.000  -4.000   2.000  0.00  0.00    +0.119 A 
ATOM     11  N1  CHE B   07      1.000  -5.120   5.000  0.00  0.00    -0.169 NA
ATOM     12  N2  CHE B   07      1.000  -5.310   1.000  0.00  0.00    -0.267 N 
ATOM     13  C8  CHE B   07      1.000  -6.240   0.000  0.00  0.00    +0.144 C 
ATOM     14  C9  CHE B   07      1.000  -5.810   9.000  0.00  0.00    +0.029 C 
ATOM     15  C10 CHE B   07      1.000  -4.460   8.000  0.00  0.00    +0.057 C 
ATOM     16  C11 CHE B   07      1.000  -4.330   5.000  0.00  0.00    +0.048 A 
ATOM     17  C12 CHE B   07      1.000  -3.470   1.000  0.00  0.00    +0.032 A 
BRANCH  10  23
ATOM     18  C1  CHE B   07      1.000  -2.150   0.000  0.00  0.00    +0.065 C 
ATOM     19  C2  CHE B   07      1.000  -2.570   3.000  0.00  0.00    +0.039 A 
ATOM     20  C3  CHE B   07      1.000  -2.480   2.000  0.00  0.00    +0.023 A 
ATOM     21  C4  CHE B   07      1.000  -2.890   8.000  0.00  0.00    +0.004 A 
ATOM     22  C5  CHE B   07      1.000  -3.400   4.000  0.00  0.00    +0.030 A 
ATOM     23  C6  CHE B   07      1.000  -3.470   6.000  0.00  0.00    +0.092 A 
ATOM     24  N6  CHE B   07      1.000  -3.050   9.000  0.00  0.00    -0.250 NA
ENDBRANCH  10  23
ENDBRANCH   1  17
BRANCH   7  25
ATOM     25  C18 CHE B   07      1.000   2.020   0.000  0.00  0.00    +0.121 C 
BRANCH  25  26
ATOM     26  C19 CHE B   07      1.000   2.030   9.000  0.00  0.00    +0.003 C 
BRANCH  26  27
ATOM     27  C20 CHE B   07      1.000   2.640   0.000  0.00  0.00    -0.077 C 
BRANCH  27  28
ATOM     28  N5  CHE B   07      1.000   3.980   8.000  0.00  0.00    +0.380 N 
ATOM     29  C21 CHE B   07      1.000   4.460   2.000  0.00  0.00    -0.079 C 
ATOM     30  C22 CHE B   07      1.000   5.650   2.000  0.00  0.00    -0.019 C 
ATOM     31  C23 CHE B   07      1.000   6.730   5.000  0.00  0.00    -0.004 C 
ATOM     32  C24 CHE B   07      1.000   6.250   3.000  0.00  0.00    -0.019 C 
ATOM     33  C25 CHE B   07      1.000   4.900   6.000  0.00  0.00    -0.079 C 
ATOM     34  H22 CHE B   07      1.000   4.020   1.000  0.00  0.00    -0.082 HD
ENDBRANCH  27  28
ENDBRANCH  26  27
ENDBRANCH  25  26
ENDBRANCH   7  25
TORSDOF 6
