REMARK  Name = dock_mp/CHEMBL3/CHEMBL338713.pdb
REMARK  2 active torsions:
REMARK  status: ('A' for Active; 'I' for Inactive)
REMARK    1  A    between atoms: C4_4  and  C5_5
REMARK    2  A    between atoms: C7_9  and  C8_10
REMARK                            x       y       z     vdW  Elec       q    Type
REMARK                         _______ _______ _______ _____ _____    ______ ____
ROOT
ATOM      1  C5  CHE B   07      1.000  -1.200   0.000  0.00  0.00    +0.045 A 
ATOM      2  C6  CHE B   07      1.000  -1.710   8.000  0.00  0.00    +0.115 A 
ATOM      3  N1  CHE B   07      1.000  -0.960   3.000  0.00  0.00    -0.283 N 
ATOM      4  N2  CHE B   07      1.000  -0.020   1.000  0.00  0.00    -0.173 NA
ATOM      5  C7  CHE B   07      1.000  -0.100   8.000  0.00  0.00    +0.102 A 
ATOM      6  H5  CHE B   07      1.000  -1.050   8.000  0.00  0.00    +0.188 HD
ENDROOT
BRANCH   5   7
ATOM      7  C8  CHE B   07      1.000   0.740   9.000  0.00  0.00    +0.013 A 
ATOM      8  C9  CHE B   07      1.000   0.750   7.000  0.00  0.00    +0.030 A 
ATOM      9  C10 CHE B   07      1.000   1.550   9.000  0.00  0.00    +0.112 A 
ATOM     10  N3  CHE B   07      1.000   2.340   0.000  0.00  0.00    -0.255 NA
ATOM     11  C11 CHE B   07      1.000   2.370   1.000  0.00  0.00    +0.072 A 
ATOM     12  C12 CHE B   07      1.000   3.170   1.000  0.00  0.00    +0.028 A 
ATOM     13  C13 CHE B   07      1.000   3.180   4.000  0.00  0.00    +0.002 A 
ATOM     14  C14 CHE B   07      1.000   2.380   5.000  0.00  0.00    +0.001 A 
ATOM     15  C15 CHE B   07      1.000   1.590   2.000  0.00  0.00    +0.010 A 
ATOM     16  C16 CHE B   07      1.000   1.560   4.000  0.00  0.00    +0.010 A 
ENDBRANCH   5   7
BRANCH   1  20
ATOM     17  C1  CHE B   07      1.000  -2.820   0.000  0.00  0.00    +0.020 A 
ATOM     18  C2  CHE B   07      1.000  -2.760   9.000  0.00  0.00    +0.004 A 
ATOM     19  C3  CHE B   07      1.000  -2.240   3.000  0.00  0.00    +0.028 A 
ATOM     20  C4  CHE B   07      1.000  -1.750   7.000  0.00  0.00    +0.075 A 
ATOM     21  N4  CHE B   07      1.000  -1.800   6.000  0.00  0.00    -0.255 NA
ATOM     22  C17 CHE B   07      1.000  -2.320   4.000  0.00  0.00    +0.111 A 
ENDBRANCH   1  20
TORSDOF 2
