REMARK  Name = dock_mp/CHEMBL3/CHEMBL361237.pdb
REMARK  2 active torsions:
REMARK  status: ('A' for Active; 'I' for Inactive)
REMARK    1  A    between atoms: C2_4  and  C3_5
REMARK    2  A    between atoms: C9_12  and  C10_13
REMARK                            x       y       z     vdW  Elec       q    Type
REMARK                         _______ _______ _______ _____ _____    ______ ____
ROOT
ATOM      1  N1  CHE B   02      1.000  -2.410   9.000  0.00  0.00    -0.337 N 
ATOM      2  C1  CHE B   02      1.000  -1.920   1.000  0.00  0.00    +0.157 A 
ATOM      3  N2  CHE B   02      1.000  -2.260   9.000  0.00  0.00    -0.224 NA
ATOM      4  C2  CHE B   02      1.000  -1.580   2.000  0.00  0.00    +0.089 A 
ATOM      5  C9  CHE B   02      1.000  -0.260   7.000  0.00  0.00    +0.067 A 
ATOM      6  S1  CHE B   02      1.000  -0.050   7.000  0.00  0.00    -0.050 S 
ATOM      7  H1  CHE B   02      1.000  -2.470   0.000  0.00  0.00    +0.144 HD
ATOM      8  H2  CHE B   02      1.000  -2.730   8.000  0.00  0.00    +0.144 HD
ENDROOT
BRANCH   5   9
ATOM      9  C10 CHE B   02      1.000   0.830   7.000  0.00  0.00    +0.081 A 
ATOM     10  C11 CHE B   02      1.000   0.800   2.000  0.00  0.00    +0.031 A 
ATOM     11  C12 CHE B   02      1.000   1.850   6.000  0.00  0.00    +0.032 A 
ATOM     12  C13 CHE B   02      1.000   2.910   4.000  0.00  0.00    +0.089 A 
ATOM     13  N3  CHE B   02      1.000   3.940   4.000  0.00  0.00    -0.253 NA
ATOM     14  C14 CHE B   02      1.000   4.960   3.000  0.00  0.00    +0.111 A 
ATOM     15  C15 CHE B   02      1.000   4.970   5.000  0.00  0.00    +0.022 A 
ATOM     16  C16 CHE B   02      1.000   3.910   4.000  0.00  0.00    +0.031 A 
ATOM     17  C17 CHE B   02      1.000   2.900   2.000  0.00  0.00    +0.090 A 
ATOM     18  N4  CHE B   02      1.000   1.850   7.000  0.00  0.00    -0.245 NA
ENDBRANCH   5   9
BRANCH   4  19
ATOM     19  C3  CHE B   02      1.000  -2.230   1.000  0.00  0.00    +0.002 A 
ATOM     20  C4  CHE B   02      1.000  -1.880   9.000  0.00  0.00    +0.013 A 
ATOM     21  C5  CHE B   02      1.000  -2.510   9.000  0.00  0.00    +0.039 A 
ATOM     22  C6  CHE B   02      1.000  -3.480   3.000  0.00  0.00    +0.123 A 
ATOM     23  F1  CHE B   02      1.000  -4.080   9.000  0.00  0.00    -0.205 F 
ATOM     24  C7  CHE B   02      1.000  -3.800   3.000  0.00  0.00    +0.039 A 
ATOM     25  C8  CHE B   02      1.000  -3.190   1.000  0.00  0.00    +0.013 A 
ENDBRANCH   4  19
TORSDOF 2
