MODEL 1
REMARK VINA RESULT:     -10.9      0.000      0.000
REMARK  Name = dock_mp/CHEMBL3/CHEMBL380916.pdb
REMARK  4 active torsions:
REMARK  status: ('A' for Active; 'I' for Inactive)
REMARK    1  A    between atoms: C1_2  and  C6_8
REMARK    2  A    between atoms: C9_11  and  C10_12
REMARK    3  A    between atoms: C12_14  and  C13_15
REMARK    4  A    between atoms: C15_19  and  C16_20
REMARK                            x       y       z     vdW  Elec       q    Type
REMARK                         _______ _______ _______ _____ _____    ______ ____
ROOT
ATOM      1  C10 CHE B   09     19.802  69.693   3.714  0.00  0.00    +0.072 A 
ATOM      2  C11 CHE B   09     19.336  68.603   7.636  0.00  0.00    +0.037 A 
ATOM      3  C12 CHE B   09     18.195  67.828   7.599  0.00  0.00    -0.011 A 
ATOM      4  C21 CHE B   09     17.603  68.007   4.626  0.00  0.00    +0.028 A 
ATOM      5  C22 CHE B   09     18.415  68.365   5.637  0.00  0.00    +0.112 A 
ATOM      6  N5  CHE B   09     19.320  69.560   2.713  0.00  0.00    -0.255 NA
ENDROOT
BRANCH   1  10
ATOM      7  C6  CHE B   09     23.907  70.317   8.737  0.00  0.00    +0.037 A 
ATOM      8  C7  CHE B   09     23.466  69.625   2.769  0.00  0.00    +0.014 A 
ATOM      9  C8  CHE B   09     22.046  69.836   4.737  0.00  0.00    +0.011 A 
ATOM     10  C9  CHE B   09     21.187  70.054   6.713  0.00  0.00    +0.000 A 
ATOM     11  C23 CHE B   09     21.781  69.489   1.753  0.00  0.00    +0.011 A 
ATOM     12  C24 CHE B   09     23.037  70.534  10.712  0.00  0.00    +0.014 A 
BRANCH   7  14
ATOM     13  O1  CHE B   09     25.902  70.456   8.750  0.00  0.00    -0.270 OA
ATOM     14  C1  CHE B   09     25.430  69.535   1.802  0.00  0.00    +0.247 C 
ATOM     15  N1  CHE B   09     26.006  70.590   9.742  0.00  0.00    -0.298 N 
ATOM     16  C2  CHE B   09     25.519  69.795   3.787  0.00  0.00    +0.108 C 
ATOM     17  C3  CHE B   09     26.575  70.630   9.746  0.00  0.00    +0.020 C 
ATOM     18  C4  CHE B   09     27.879  69.833   2.810  0.00  0.00    +0.020 C 
ATOM     19  C5  CHE B   09     27.439  70.309   6.776  0.00  0.00    +0.108 C 
ENDBRANCH   7  14
ENDBRANCH   1  10
BRANCH   3  20
ATOM     20  C13 CHE B   09     17.240  67.760   4.614  0.00  0.00    +0.029 A 
ATOM     21  C14 CHE B   09     17.227  67.669   3.618  0.00  0.00    +0.114 A 
ATOM     22  N2  CHE B   09     16.348  68.518  10.591  0.00  0.00    -0.284 N 
ATOM     23  N3  CHE B   09     15.627  68.397   7.606  0.00  0.00    -0.172 NA
ATOM     24  C15 CHE B   09     16.156  68.000   4.617  0.00  0.00    +0.118 A 
ATOM     25  H13 CHE B   09     15.943  67.767   1.629  0.00  0.00    +0.188 HD
BRANCH  24  26
ATOM     26  C16 CHE B   09     15.792  67.987   3.622  0.00  0.00    +0.091 A 
ATOM     27  C17 CHE B   09     15.384  66.363   6.385  0.00  0.00    +0.030 A 
ATOM     28  C18 CHE B   09     15.779  65.239  10.208  0.00  0.00    +0.004 A 
ATOM     29  C19 CHE B   09     15.505  67.669   3.579  0.00  0.00    +0.020 A 
ATOM     30  C20 CHE B   09     16.037  69.040   1.775  0.00  0.00    +0.111 A 
ATOM     31  N4  CHE B   09     17.052  67.430   8.513  0.00  0.00    -0.253 NA
ENDBRANCH  24  26
ENDBRANCH   3  20
TORSDOF 4
ENDMDL
MODEL 2
REMARK VINA RESULT:     -10.2      2.730      5.978
REMARK  Name = dock_mp/CHEMBL3/CHEMBL380916.pdb
REMARK  4 active torsions:
REMARK  status: ('A' for Active; 'I' for Inactive)
REMARK    1  A    between atoms: C1_2  and  C6_8
REMARK    2  A    between atoms: C9_11  and  C10_12
REMARK    3  A    between atoms: C12_14  and  C13_15
REMARK    4  A    between atoms: C15_19  and  C16_20
REMARK                            x       y       z     vdW  Elec       q    Type
REMARK                         _______ _______ _______ _____ _____    ______ ____
ROOT
ATOM      1  C10 CHE B   09     20.698  69.382   9.263  0.00  0.00    +0.072 A 
ATOM      2  C11 CHE B   09     18.975  68.242   5.724  0.00  0.00    +0.037 A 
ATOM      3  C12 CHE B   09     17.870  67.531   6.144  0.00  0.00    -0.011 A 
ATOM      4  C21 CHE B   09     18.251  67.799   9.145  0.00  0.00    +0.028 A 
ATOM      5  C22 CHE B   09     18.719  68.093   7.918  0.00  0.00    +0.112 A 
ATOM      6  N5  CHE B   09     20.550  69.295  10.367  0.00  0.00    -0.255 NA
ENDROOT
BRANCH   1  10
ATOM      7  C6  CHE B   09     23.021  69.526   3.175  0.00  0.00    +0.037 A 
ATOM      8  C7  CHE B   09     24.422  68.769   8.984  0.00  0.00    +0.014 A 
ATOM      9  C8  CHE B   09     22.492  69.225   7.570  0.00  0.00    +0.011 A 
ATOM     10  C9  CHE B   09     21.085  69.609   5.970  0.00  0.00    +0.000 A 
ATOM     11  C23 CHE B   09     23.151  68.853  10.490  0.00  0.00    +0.011 A 
ATOM     12  C24 CHE B   09     21.604  69.911   1.578  0.00  0.00    +0.014 A 
BRANCH   7  14
ATOM     13  O1  CHE B   09     24.862  69.137   2.499  0.00  0.00    -0.270 OA
ATOM     14  C1  CHE B   09     26.559  68.377   9.272  0.00  0.00    +0.247 C 
ATOM     15  N1  CHE B   09     24.654  69.238   1.519  0.00  0.00    -0.298 N 
ATOM     16  C2  CHE B   09     26.032  68.603   7.353  0.00  0.00    +0.108 C 
ATOM     17  C3  CHE B   09     25.179  69.128   1.326  0.00  0.00    +0.020 C 
ATOM     18  C4  CHE B   09     28.515  68.021   7.498  0.00  0.00    +0.020 C 
ATOM     19  C5  CHE B   09     26.890  68.594   3.868  0.00  0.00    +0.108 C 
ENDBRANCH   7  14
ENDBRANCH   1  10
BRANCH   3  20
ATOM     20  C13 CHE B   09     17.899  67.572   9.279  0.00  0.00    +0.029 A 
ATOM     21  C14 CHE B   09     18.203  67.534  10.231  0.00  0.00    +0.114 A 
ATOM     22  N2  CHE B   09     15.142  67.968   3.862  0.00  0.00    -0.284 N 
ATOM     23  N3  CHE B   09     15.397  67.970   6.925  0.00  0.00    -0.172 NA
ATOM     24  C15 CHE B   09     16.855  67.757   9.609  0.00  0.00    +0.118 A 
ATOM     25  H13 CHE B   09     17.599  67.672  12.517  0.00  0.00    +0.188 HD
BRANCH  24  26
ATOM     26  C16 CHE B   09     16.821  67.779  10.667  0.00  0.00    +0.091 A 
ATOM     27  C17 CHE B   09     15.760  65.937   8.234  0.00  0.00    +0.030 A 
ATOM     28  C18 CHE B   09     15.074  64.595   4.524  0.00  0.00    +0.004 A 
ATOM     29  C19 CHE B   09     16.599  67.439  10.809  0.00  0.00    +0.020 A 
ATOM     30  C20 CHE B   09     17.508  68.975  12.303  0.00  0.00    +0.111 A 
ATOM     31  N4  CHE B   09     16.557  67.008   5.651  0.00  0.00    -0.253 NA
ENDBRANCH  24  26
ENDBRANCH   3  20
TORSDOF 4
ENDMDL
MODEL 3
REMARK VINA RESULT:      -9.7      3.098      9.020
REMARK  Name = dock_mp/CHEMBL3/CHEMBL380916.pdb
REMARK  4 active torsions:
REMARK  status: ('A' for Active; 'I' for Inactive)
REMARK    1  A    between atoms: C1_2  and  C6_8
REMARK    2  A    between atoms: C9_11  and  C10_12
REMARK    3  A    between atoms: C12_14  and  C13_15
REMARK    4  A    between atoms: C15_19  and  C16_20
REMARK                            x       y       z     vdW  Elec       q    Type
REMARK                         _______ _______ _______ _____ _____    ______ ____
ROOT
ATOM      1  C10 CHE B   09     18.910  68.428   9.824  0.00  0.00    +0.072 A 
ATOM      2  C11 CHE B   09     22.847  69.398   9.236  0.00  0.00    +0.037 A 
ATOM      3  C12 CHE B   09     23.340  69.447  10.524  0.00  0.00    -0.011 A 
ATOM      4  C21 CHE B   09     20.792  68.759  12.027  0.00  0.00    +0.028 A 
ATOM      5  C22 CHE B   09     21.376  68.962  10.832  0.00  0.00    +0.112 A 
ATOM      6  N5  CHE B   09     18.183  68.210  10.646  0.00  0.00    -0.255 NA
ENDROOT
BRANCH   1  10
ATOM      7  C6  CHE B   09     21.955  69.411   4.147  0.00  0.00    +0.037 A 
ATOM      8  C7  CHE B   09     16.728  67.964   6.767  0.00  0.00    +0.014 A 
ATOM      9  C8  CHE B   09     19.019  68.540   7.358  0.00  0.00    +0.011 A 
ATOM     10  C9  CHE B   09     21.115  69.082   7.425  0.00  0.00    +0.000 A 
ATOM     11  C23 CHE B   09     16.422  67.819   8.710  0.00  0.00    +0.011 A 
ATOM     12  C24 CHE B   09     24.053  69.954   4.223  0.00  0.00    +0.014 A 
BRANCH   7  14
ATOM     13  O1  CHE B   09     21.170  69.635   2.321  0.00  0.00    -0.270 OA
ATOM     14  C1  CHE B   09     15.142  67.602   5.299  0.00  0.00    +0.247 C 
ATOM     15  N1  CHE B   09     22.016  69.930   1.861  0.00  0.00    -0.298 N 
ATOM     16  C2  CHE B   09     16.882  68.177   4.490  0.00  0.00    +0.108 C 
ATOM     17  C3  CHE B   09     21.792  69.994   1.341  0.00  0.00    +0.020 C 
ATOM     18  C4  CHE B   09     15.066  68.159   2.694  0.00  0.00    +0.020 C 
ATOM     19  C5  CHE B   09     18.790  69.242   1.642  0.00  0.00    +0.108 C 
ENDBRANCH   7  14
ENDBRANCH   1  10
BRANCH   3  20
ATOM     20  C13 CHE B   09     20.949  68.774  12.438  0.00  0.00    +0.029 A 
ATOM     21  C14 CHE B   09     20.057  68.782  12.888  0.00  0.00    +0.114 A 
ATOM     22  N2  CHE B   09     26.610  67.995  10.328  0.00  0.00    -0.284 N 
ATOM     23  N3  CHE B   09     24.146  67.500  12.098  0.00  0.00    -0.172 NA
ATOM     24  C15 CHE B   09     21.290  67.952  13.102  0.00  0.00    +0.118 A 
ATOM     25  H13 CHE B   09     18.666  67.842  14.561  0.00  0.00    +0.188 HD
BRANCH  24  26
ATOM     26  C16 CHE B   09     20.507  67.694  13.768  0.00  0.00    +0.091 A 
ATOM     27  C17 CHE B   09     23.435  69.058  13.864  0.00  0.00    +0.030 A 
ATOM     28  C18 CHE B   09     26.975  70.508  12.680  0.00  0.00    +0.004 A 
ATOM     29  C19 CHE B   09     20.618  67.806  14.168  0.00  0.00    +0.020 A 
ATOM     30  C20 CHE B   09     18.566  66.795  13.742  0.00  0.00    +0.111 A 
ATOM     31  N4  CHE B   09     24.636  69.207  11.220  0.00  0.00    -0.253 NA
ENDBRANCH  24  26
ENDBRANCH   3  20
TORSDOF 4
ENDMDL
MODEL 4
REMARK VINA RESULT:      -9.1      2.871      8.606
REMARK  Name = dock_mp/CHEMBL3/CHEMBL380916.pdb
REMARK  4 active torsions:
REMARK  status: ('A' for Active; 'I' for Inactive)
REMARK    1  A    between atoms: C1_2  and  C6_8
REMARK    2  A    between atoms: C9_11  and  C10_12
REMARK    3  A    between atoms: C12_14  and  C13_15
REMARK    4  A    between atoms: C15_19  and  C16_20
REMARK                            x       y       z     vdW  Elec       q    Type
REMARK                         _______ _______ _______ _____ _____    ______ ____
ROOT
ATOM      1  C10 CHE B   09     21.969  70.038   2.671  0.00  0.00    +0.072 A 
ATOM      2  C11 CHE B   09     24.705  69.507   5.675  0.00  0.00    +0.037 A 
ATOM      3  C12 CHE B   09     25.858  69.201   4.980  0.00  0.00    -0.011 A 
ATOM      4  C21 CHE B   09     24.755  69.347   2.154  0.00  0.00    +0.028 A 
ATOM      5  C22 CHE B   09     24.502  69.463   3.470  0.00  0.00    +0.112 A 
ATOM      6  N5  CHE B   09     21.888  70.010   1.556  0.00  0.00    -0.255 NA
ENDROOT
BRANCH   1  10
ATOM      7  C6  CHE B   09     21.019  69.621   9.105  0.00  0.00    +0.037 A 
ATOM      8  C7  CHE B   09     18.537  68.802   3.678  0.00  0.00    +0.014 A 
ATOM      9  C8  CHE B   09     20.629  69.536   4.686  0.00  0.00    +0.011 A 
ATOM     10  C9  CHE B   09     22.270  70.105   5.980  0.00  0.00    +0.000 A 
ATOM     11  C23 CHE B   09     19.424  69.140   1.950  0.00  0.00    +0.011 A 
ATOM     12  C24 CHE B   09     22.668  70.193  10.394  0.00  0.00    +0.014 A 
BRANCH   7  14
ATOM     13  O1  CHE B   09     19.567  68.667  10.096  0.00  0.00    -0.270 OA
ATOM     14  C1  CHE B   09     16.477  68.067   3.817  0.00  0.00    +0.247 C 
ATOM     15  N1  CHE B   09     19.982  68.735  11.011  0.00  0.00    -0.298 N 
ATOM     16  C2  CHE B   09     17.393  68.260   5.588  0.00  0.00    +0.108 C 
ATOM     17  C3  CHE B   09     19.568  68.463  11.293  0.00  0.00    +0.020 C 
ATOM     18  C4  CHE B   09     15.185  67.014   5.896  0.00  0.00    +0.020 C 
ATOM     19  C5  CHE B   09     17.468  67.696   9.131  0.00  0.00    +0.108 C 
ENDBRANCH   7  14
ENDBRANCH   1  10
BRANCH   3  20
ATOM     20  C13 CHE B   09     25.123  69.249   1.933  0.00  0.00    +0.029 A 
ATOM     21  C14 CHE B   09     24.608  69.251   1.075  0.00  0.00    +0.114 A 
ATOM     22  N2  CHE B   09     29.065  69.286   6.576  0.00  0.00    -0.284 N 
ATOM     23  N3  CHE B   09     28.123  69.323   3.650  0.00  0.00    -0.172 NA
ATOM     24  C15 CHE B   09     26.079  69.301   1.371  0.00  0.00    +0.118 A 
ATOM     25  H13 CHE B   09     24.689  69.314  -1.292  0.00  0.00    +0.188 HD
BRANCH  24  26
ATOM     26  C16 CHE B   09     25.874  69.319   0.332  0.00  0.00    +0.091 A 
ATOM     27  C17 CHE B   09     27.095  67.299   2.538  0.00  0.00    +0.030 A 
ATOM     28  C18 CHE B   09     28.343  65.837   6.051  0.00  0.00    +0.004 A 
ATOM     29  C19 CHE B   09     25.990  68.943   0.158  0.00  0.00    +0.020 A 
ATOM     30  C20 CHE B   09     25.071  70.631  -1.155  0.00  0.00    +0.111 A 
ATOM     31  N4  CHE B   09     27.124  68.494   5.188  0.00  0.00    -0.253 NA
ENDBRANCH  24  26
ENDBRANCH   3  20
TORSDOF 4
ENDMDL
MODEL 5
REMARK VINA RESULT:      -8.9      2.794      8.653
REMARK  Name = dock_mp/CHEMBL3/CHEMBL380916.pdb
REMARK  4 active torsions:
REMARK  status: ('A' for Active; 'I' for Inactive)
REMARK    1  A    between atoms: C1_2  and  C6_8
REMARK    2  A    between atoms: C9_11  and  C10_12
REMARK    3  A    between atoms: C12_14  and  C13_15
REMARK    4  A    between atoms: C15_19  and  C16_20
REMARK                            x       y       z     vdW  Elec       q    Type
REMARK                         _______ _______ _______ _____ _____    ______ ____
ROOT
ATOM      1  C10 CHE B   09     23.032  70.407   3.549  0.00  0.00    +0.072 A 
ATOM      2  C11 CHE B   09     24.655  69.067   7.066  0.00  0.00    +0.037 A 
ATOM      3  C12 CHE B   09     25.907  68.639   6.674  0.00  0.00    -0.011 A 
ATOM      4  C21 CHE B   09     25.723  69.292   3.714  0.00  0.00    +0.028 A 
ATOM      5  C22 CHE B   09     25.109  69.305   4.912  0.00  0.00    +0.112 A 
ATOM      6  N5  CHE B   09     23.282  70.518   2.465  0.00  0.00    -0.255 NA
ENDROOT
BRANCH   1  10
ATOM      7  C6  CHE B   09     20.253  69.171   9.313  0.00  0.00    +0.037 A 
ATOM      8  C7  CHE B   09     19.507  69.046   3.337  0.00  0.00    +0.014 A 
ATOM      9  C8  CHE B   09     21.181  69.649   5.001  0.00  0.00    +0.011 A 
ATOM     10  C9  CHE B   09     22.345  70.052   6.781  0.00  0.00    +0.000 A 
ATOM     11  C23 CHE B   09     20.849  69.603   2.003  0.00  0.00    +0.011 A 
ATOM     12  C24 CHE B   09     21.427  69.577  11.092  0.00  0.00    +0.014 A 
BRANCH   7  14
ATOM     13  O1  CHE B   09     18.580  68.150   9.712  0.00  0.00    -0.270 OA
ATOM     14  C1  CHE B   09     17.529  68.294   2.769  0.00  0.00    +0.247 C 
ATOM     15  N1  CHE B   09     18.700  68.110  10.712  0.00  0.00    -0.298 N 
ATOM     16  C2  CHE B   09     17.868  68.276   4.744  0.00  0.00    +0.108 C 
ATOM     17  C3  CHE B   09     18.223  67.819  10.825  0.00  0.00    +0.020 C 
ATOM     18  C4  CHE B   09     15.683  67.055   4.237  0.00  0.00    +0.020 C 
ATOM     19  C5  CHE B   09     16.878  67.335   8.063  0.00  0.00    +0.108 C 
ENDBRANCH   7  14
ENDBRANCH   1  10
BRANCH   3  20
ATOM     20  C13 CHE B   09     26.122  69.156   3.590  0.00  0.00    +0.029 A 
ATOM     21  C14 CHE B   09     26.064  69.584   2.688  0.00  0.00    +0.114 A 
ATOM     22  N2  CHE B   09     26.878  65.779   8.603  0.00  0.00    -0.284 N 
ATOM     23  N3  CHE B   09     26.994  66.492   5.615  0.00  0.00    -0.172 NA
ATOM     24  C15 CHE B   09     26.581  68.249   3.142  0.00  0.00    +0.118 A 
ATOM     25  H13 CHE B   09     26.481  69.386   0.364  0.00  0.00    +0.188 HD
BRANCH  24  26
ATOM     26  C16 CHE B   09     26.672  68.383   2.095  0.00  0.00    +0.091 A 
ATOM     27  C17 CHE B   09     28.573  68.202   4.701  0.00  0.00    +0.030 A 
ATOM     28  C18 CHE B   09     29.746  67.822   8.511  0.00  0.00    +0.004 A 
ATOM     29  C19 CHE B   09     27.087  68.425   1.993  0.00  0.00    +0.020 A 
ATOM     30  C20 CHE B   09     25.443  68.508   0.348  0.00  0.00    +0.111 A 
ATOM     31  N4  CHE B   09     27.029  67.796   7.131  0.00  0.00    -0.253 NA
ENDBRANCH  24  26
ENDBRANCH   3  20
TORSDOF 4
ENDMDL
MODEL 6
REMARK VINA RESULT:      -8.9      2.969     10.207
REMARK  Name = dock_mp/CHEMBL3/CHEMBL380916.pdb
REMARK  4 active torsions:
REMARK  status: ('A' for Active; 'I' for Inactive)
REMARK    1  A    between atoms: C1_2  and  C6_8
REMARK    2  A    between atoms: C9_11  and  C10_12
REMARK    3  A    between atoms: C12_14  and  C13_15
REMARK    4  A    between atoms: C15_19  and  C16_20
REMARK                            x       y       z     vdW  Elec       q    Type
REMARK                         _______ _______ _______ _____ _____    ______ ____
ROOT
ATOM      1  C10 CHE B   09     20.342  68.752  10.793  0.00  0.00    +0.072 A 
ATOM      2  C11 CHE B   09     23.592  69.902   8.579  0.00  0.00    +0.037 A 
ATOM      3  C12 CHE B   09     24.566  70.072   9.542  0.00  0.00    -0.011 A 
ATOM      4  C21 CHE B   09     22.931  69.349  11.997  0.00  0.00    +0.028 A 
ATOM      5  C22 CHE B   09     22.952  69.498  10.660  0.00  0.00    +0.112 A 
ATOM      6  N5  CHE B   09     20.039  68.553  11.851  0.00  0.00    -0.255 NA
ENDROOT
BRANCH   1  10
ATOM      7  C6  CHE B   09     20.833  69.151   4.307  0.00  0.00    +0.037 A 
ATOM      8  C7  CHE B   09     17.485  67.150   8.897  0.00  0.00    +0.014 A 
ATOM      9  C8  CHE B   09     19.565  68.348   8.482  0.00  0.00    +0.011 A 
ATOM     10  C9  CHE B   09     21.300  69.357   7.669  0.00  0.00    +0.000 A 
ATOM     11  C23 CHE B   09     17.918  67.363  10.809  0.00  0.00    +0.011 A 
ATOM     12  C24 CHE B   09     22.575  70.162   3.501  0.00  0.00    +0.014 A 
BRANCH   7  14
ATOM     13  O1  CHE B   09     19.319  69.110   3.002  0.00  0.00    -0.270 OA
ATOM     14  C1  CHE B   09     15.674  66.125   8.211  0.00  0.00    +0.247 C 
ATOM     15  N1  CHE B   09     19.811  69.536   2.233  0.00  0.00    -0.298 N 
ATOM     16  C2  CHE B   09     16.750  66.979   6.752  0.00  0.00    +0.108 C 
ATOM     17  C3  CHE B   09     19.380  69.524   1.861  0.00  0.00    +0.020 C 
ATOM     18  C4  CHE B   09     14.387  66.503   5.909  0.00  0.00    +0.020 C 
ATOM     19  C5  CHE B   09     17.008  68.223   3.396  0.00  0.00    +0.108 C 
ENDBRANCH   7  14
ENDBRANCH   1  10
BRANCH   3  20
ATOM     20  C13 CHE B   09     23.241  69.403  12.304  0.00  0.00    +0.029 A 
ATOM     21  C14 CHE B   09     22.576  69.303  13.043  0.00  0.00    +0.114 A 
ATOM     22  N2  CHE B   09     27.945  69.614   8.439  0.00  0.00    -0.284 N 
ATOM     23  N3  CHE B   09     26.448  69.039  11.062  0.00  0.00    -0.172 NA
ATOM     24  C15 CHE B   09     24.036  68.967  12.945  0.00  0.00    +0.118 A 
ATOM     25  H13 CHE B   09     22.167  68.596  15.267  0.00  0.00    +0.188 HD
BRANCH  24  26
ATOM     26  C16 CHE B   09     23.628  68.726  13.892  0.00  0.00    +0.091 A 
ATOM     27  C17 CHE B   09     25.708  70.835  12.603  0.00  0.00    +0.030 A 
ATOM     28  C18 CHE B   09     27.945  72.780   9.910  0.00  0.00    +0.004 A 
ATOM     29  C19 CHE B   09     23.791  68.991  14.189  0.00  0.00    +0.020 A 
ATOM     30  C20 CHE B   09     22.256  67.344  14.780  0.00  0.00    +0.111 A 
ATOM     31  N4  CHE B   09     25.988  70.450   9.735  0.00  0.00    -0.253 NA
ENDBRANCH  24  26
ENDBRANCH   3  20
TORSDOF 4
ENDMDL
MODEL 7
REMARK VINA RESULT:      -8.5      3.636      9.789
REMARK  Name = dock_mp/CHEMBL3/CHEMBL380916.pdb
REMARK  4 active torsions:
REMARK  status: ('A' for Active; 'I' for Inactive)
REMARK    1  A    between atoms: C1_2  and  C6_8
REMARK    2  A    between atoms: C9_11  and  C10_12
REMARK    3  A    between atoms: C12_14  and  C13_15
REMARK    4  A    between atoms: C15_19  and  C16_20
REMARK                            x       y       z     vdW  Elec       q    Type
REMARK                         _______ _______ _______ _____ _____    ______ ____
ROOT
ATOM      1  C10 CHE B   09     20.224  69.110  11.057  0.00  0.00    +0.072 A 
ATOM      2  C11 CHE B   09     23.470  68.431   8.649  0.00  0.00    +0.037 A 
ATOM      3  C12 CHE B   09     24.330  67.754   9.489  0.00  0.00    -0.011 A 
ATOM      4  C21 CHE B   09     22.605  67.705  11.988  0.00  0.00    +0.028 A 
ATOM      5  C22 CHE B   09     22.716  68.086  10.703  0.00  0.00    +0.112 A 
ATOM      6  N5  CHE B   09     19.863  68.925  12.099  0.00  0.00    -0.255 NA
ENDROOT
BRANCH   1  10
ATOM      7  C6  CHE B   09     21.093  69.290   4.601  0.00  0.00    +0.037 A 
ATOM      8  C7  CHE B   09     17.530  67.359   9.057  0.00  0.00    +0.014 A 
ATOM      9  C8  CHE B   09     19.598  68.602   8.721  0.00  0.00    +0.011 A 
ATOM     10  C9  CHE B   09     21.351  69.630   7.974  0.00  0.00    +0.000 A 
ATOM     11  C23 CHE B   09     17.842  67.653  10.982  0.00  0.00    +0.011 A 
ATOM     12  C24 CHE B   09     22.851  70.323   3.861  0.00  0.00    +0.014 A 
BRANCH   7  14
ATOM     13  O1  CHE B   09     19.648  69.195   3.221  0.00  0.00    -0.270 OA
ATOM     14  C1  CHE B   09     15.792  66.257   8.304  0.00  0.00    +0.247 C 
ATOM     15  N1  CHE B   09     20.172  69.613   2.470  0.00  0.00    -0.298 N 
ATOM     16  C2  CHE B   09     16.927  67.099   6.884  0.00  0.00    +0.108 C 
ATOM     17  C3  CHE B   09     19.760  69.586   2.077  0.00  0.00    +0.020 C 
ATOM     18  C4  CHE B   09     14.618  66.563   5.932  0.00  0.00    +0.020 C 
ATOM     19  C5  CHE B   09     17.335  68.276   3.518  0.00  0.00    +0.108 C 
ENDBRANCH   7  14
ENDBRANCH   1  10
BRANCH   3  20
ATOM     20  C13 CHE B   09     22.879  67.489  12.256  0.00  0.00    +0.029 A 
ATOM     21  C14 CHE B   09     22.302  67.672  13.052  0.00  0.00    +0.114 A 
ATOM     22  N2  CHE B   09     26.630  65.531   7.874  0.00  0.00    -0.284 N 
ATOM     23  N3  CHE B   09     25.108  65.474  10.544  0.00  0.00    -0.172 NA
ATOM     24  C15 CHE B   09     23.207  66.526  12.701  0.00  0.00    +0.118 A 
ATOM     25  H13 CHE B   09     21.532  66.920  15.163  0.00  0.00    +0.188 HD
BRANCH  24  26
ATOM     26  C16 CHE B   09     22.738  66.398  13.642  0.00  0.00    +0.091 A 
ATOM     27  C17 CHE B   09     25.688  66.959  12.450  0.00  0.00    +0.030 A 
ATOM     28  C18 CHE B   09     28.656  67.597   9.839  0.00  0.00    +0.004 A 
ATOM     29  C19 CHE B   09     23.032  66.431  13.953  0.00  0.00    +0.020 A 
ATOM     30  C20 CHE B   09     20.798  66.027  14.466  0.00  0.00    +0.111 A 
ATOM     31  N4  CHE B   09     25.662  67.107   9.546  0.00  0.00    -0.253 NA
ENDBRANCH  24  26
ENDBRANCH   3  20
TORSDOF 4
ENDMDL
