MODEL 1
REMARK VINA RESULT:      -9.8      0.000      0.000
REMARK  Name = dock_mp/CHEMBL3/CHEMBL361237.pdb
REMARK  2 active torsions:
REMARK  status: ('A' for Active; 'I' for Inactive)
REMARK    1  A    between atoms: C2_4  and  C3_5
REMARK    2  A    between atoms: C9_12  and  C10_13
REMARK                            x       y       z     vdW  Elec       q    Type
REMARK                         _______ _______ _______ _____ _____    ______ ____
ROOT
ATOM      1  N1  CHE B   02     22.869  71.477   9.275  0.00  0.00    -0.337 N 
ATOM      2  C1  CHE B   02     22.254  69.619   1.502  0.00  0.00    +0.157 A 
ATOM      3  N2  CHE B   02     22.754  71.384   9.296  0.00  0.00    -0.224 NA
ATOM      4  C2  CHE B   02     22.022  69.602   2.532  0.00  0.00    +0.089 A 
ATOM      5  C9  CHE B   02     21.153  69.755   7.628  0.00  0.00    +0.067 A 
ATOM      6  S1  CHE B   02     20.991  69.624   7.659  0.00  0.00    -0.050 S 
ATOM      7  H1  CHE B   02     22.648  69.766   0.441  0.00  0.00    +0.144 HD
ATOM      8  H2  CHE B   02     23.086  71.481   8.247  0.00  0.00    +0.144 HD
ENDROOT
BRANCH   5   9
ATOM      9  C10 CHE B   02     20.313  69.078   7.788  0.00  0.00    +0.081 A 
ATOM     10  C11 CHE B   02     18.743  69.978   3.127  0.00  0.00    +0.031 A 
ATOM     11  C12 CHE B   02     19.209  68.622   7.005  0.00  0.00    +0.032 A 
ATOM     12  C13 CHE B   02     17.755  68.316   5.298  0.00  0.00    +0.089 A 
ATOM     13  N3  CHE B   02     16.961  67.677   5.449  0.00  0.00    -0.253 NA
ATOM     14  C14 CHE B   02     15.856  67.221   4.666  0.00  0.00    +0.111 A 
ATOM     15  C15 CHE B   02     16.486  66.862   6.531  0.00  0.00    +0.022 A 
ATOM     16  C16 CHE B   02     16.984  67.696   5.444  0.00  0.00    +0.031 A 
ATOM     17  C17 CHE B   02     17.125  68.675   3.434  0.00  0.00    +0.090 A 
ATOM     18  N4  CHE B   02     19.527  68.445   7.937  0.00  0.00    -0.245 NA
ENDBRANCH   5   9
BRANCH   4  19
ATOM     19  C3  CHE B   02     22.493  69.811   1.457  0.00  0.00    +0.002 A 
ATOM     20  C4  CHE B   02     23.489  67.946   9.180  0.00  0.00    +0.013 A 
ATOM     21  C5  CHE B   02     24.108  67.921   9.066  0.00  0.00    +0.039 A 
ATOM     22  C6  CHE B   02     24.056  69.292   3.145  0.00  0.00    +0.123 A 
ATOM     23  F1  CHE B   02     25.651  67.858   8.780  0.00  0.00    -0.205 F 
ATOM     24  C7  CHE B   02     24.370  69.279   3.087  0.00  0.00    +0.039 A 
ATOM     25  C8  CHE B   02     23.436  69.773   1.282  0.00  0.00    +0.013 A 
ENDBRANCH   4  19
TORSDOF 2
ENDMDL
MODEL 2
REMARK VINA RESULT:      -8.2      4.247      8.000
REMARK  Name = dock_mp/CHEMBL3/CHEMBL361237.pdb
REMARK  2 active torsions:
REMARK  status: ('A' for Active; 'I' for Inactive)
REMARK    1  A    between atoms: C2_4  and  C3_5
REMARK    2  A    between atoms: C9_12  and  C10_13
REMARK                            x       y       z     vdW  Elec       q    Type
REMARK                         _______ _______ _______ _____ _____    ______ ____
ROOT
ATOM      1  N1  CHE B   02     22.144  71.852  10.269  0.00  0.00    -0.337 N 
ATOM      2  C1  CHE B   02     17.966  67.710   4.826  0.00  0.00    +0.157 A 
ATOM      3  N2  CHE B   02     22.199  71.720  10.314  0.00  0.00    -0.224 NA
ATOM      4  C2  CHE B   02     18.636  67.875   5.626  0.00  0.00    +0.089 A 
ATOM      5  C9  CHE B   02     21.844  69.031   9.513  0.00  0.00    +0.067 A 
ATOM      6  S1  CHE B   02     21.921  68.846   9.576  0.00  0.00    -0.050 S 
ATOM      7  H1  CHE B   02     17.219  67.731   3.963  0.00  0.00    +0.144 HD
ATOM      8  H2  CHE B   02     21.482  71.670   9.475  0.00  0.00    +0.144 HD
ENDROOT
BRANCH   5   9
ATOM      9  C10 CHE B   02     22.244  68.070   9.839  0.00  0.00    +0.081 A 
ATOM     10  C11 CHE B   02     25.332  70.452  12.969  0.00  0.00    +0.031 A 
ATOM     11  C12 CHE B   02     23.238  67.643  10.771  0.00  0.00    +0.032 A 
ATOM     12  C13 CHE B   02     24.867  67.651  12.343  0.00  0.00    +0.089 A 
ATOM     13  N3  CHE B   02     25.245  66.743  12.651  0.00  0.00    -0.253 NA
ATOM     14  C14 CHE B   02     26.239  66.316  13.583  0.00  0.00    +0.111 A 
ATOM     15  C15 CHE B   02     25.003  65.365  12.330  0.00  0.00    +0.022 A 
ATOM     16  C16 CHE B   02     25.234  66.770  12.642  0.00  0.00    +0.031 A 
ATOM     17  C17 CHE B   02     26.103  68.602  13.596  0.00  0.00    +0.090 A 
ATOM     18  N4  CHE B   02     22.618  67.172  10.143  0.00  0.00    -0.245 NA
ENDBRANCH   5   9
BRANCH   4  19
ATOM     19  C3  CHE B   02     17.852  67.984   4.733  0.00  0.00    +0.002 A 
ATOM     20  C4  CHE B   02     19.559  68.627  12.530  0.00  0.00    +0.013 A 
ATOM     21  C5  CHE B   02     18.966  68.824  12.615  0.00  0.00    +0.039 A 
ATOM     22  C6  CHE B   02     17.021  68.562   6.863  0.00  0.00    +0.123 A 
ATOM     23  F1  CHE B   02     17.490  69.315  12.827  0.00  0.00    -0.205 F 
ATOM     24  C7  CHE B   02     16.720  68.662   6.906  0.00  0.00    +0.039 A 
ATOM     25  C8  CHE B   02     16.949  68.283   4.863  0.00  0.00    +0.013 A 
ENDBRANCH   4  19
TORSDOF 2
ENDMDL
MODEL 3
REMARK VINA RESULT:      -8.2      3.749      7.151
REMARK  Name = dock_mp/CHEMBL3/CHEMBL361237.pdb
REMARK  2 active torsions:
REMARK  status: ('A' for Active; 'I' for Inactive)
REMARK    1  A    between atoms: C2_4  and  C3_5
REMARK    2  A    between atoms: C9_12  and  C10_13
REMARK                            x       y       z     vdW  Elec       q    Type
REMARK                         _______ _______ _______ _____ _____    ______ ____
ROOT
ATOM      1  N1  CHE B   02     18.740  66.037   9.047  0.00  0.00    -0.337 N 
ATOM      2  C1  CHE B   02     18.471  69.287   1.725  0.00  0.00    +0.157 A 
ATOM      3  N2  CHE B   02     18.803  66.166   9.091  0.00  0.00    -0.224 NA
ATOM      4  C2  CHE B   02     18.675  69.224   2.759  0.00  0.00    +0.089 A 
ATOM      5  C9  CHE B   02     19.533  68.584   7.819  0.00  0.00    +0.067 A 
ATOM      6  S1  CHE B   02     19.622  68.763   7.881  0.00  0.00    -0.050 S 
ATOM      7  H1  CHE B   02     18.179  69.170   0.628  0.00  0.00    +0.144 HD
ATOM      8  H2  CHE B   02     18.544  66.117   8.018  0.00  0.00    +0.144 HD
ENDROOT
BRANCH   5   9
ATOM      9  C10 CHE B   02     19.996  69.516   8.143  0.00  0.00    +0.081 A 
ATOM     10  C11 CHE B   02     23.003  66.931  11.188  0.00  0.00    +0.031 A 
ATOM     11  C12 CHE B   02     21.032  69.877   9.057  0.00  0.00    +0.032 A 
ATOM     12  C13 CHE B   02     22.690  69.760  10.594  0.00  0.00    +0.089 A 
ATOM     13  N3  CHE B   02     23.127  70.641  10.900  0.00  0.00    -0.253 NA
ATOM     14  C14 CHE B   02     24.164  71.001  11.814  0.00  0.00    +0.111 A 
ATOM     15  C15 CHE B   02     22.960  72.034  10.595  0.00  0.00    +0.022 A 
ATOM     16  C16 CHE B   02     23.114  70.615  10.891  0.00  0.00    +0.031 A 
ATOM     17  C17 CHE B   02     23.894  68.727  11.812  0.00  0.00    +0.090 A 
ATOM     18  N4  CHE B   02     20.428  70.389   8.446  0.00  0.00    -0.245 NA
ENDBRANCH   5   9
BRANCH   4  19
ATOM     19  C3  CHE B   02     18.340  69.022   1.633  0.00  0.00    +0.002 A 
ATOM     20  C4  CHE B   02     16.672  68.850   9.463  0.00  0.00    +0.013 A 
ATOM     21  C5  CHE B   02     16.107  68.618   9.310  0.00  0.00    +0.039 A 
ATOM     22  C6  CHE B   02     16.723  68.486   3.264  0.00  0.00    +0.123 A 
ATOM     23  F1  CHE B   02     14.699  68.039   8.927  0.00  0.00    -0.205 F 
ATOM     24  C7  CHE B   02     16.436  68.368   3.186  0.00  0.00    +0.039 A 
ATOM     25  C8  CHE B   02     17.479  68.668   1.399  0.00  0.00    +0.013 A 
ENDBRANCH   4  19
TORSDOF 2
ENDMDL
MODEL 4
REMARK VINA RESULT:      -8.1      3.938      7.520
REMARK  Name = dock_mp/CHEMBL3/CHEMBL361237.pdb
REMARK  2 active torsions:
REMARK  status: ('A' for Active; 'I' for Inactive)
REMARK    1  A    between atoms: C2_4  and  C3_5
REMARK    2  A    between atoms: C9_12  and  C10_13
REMARK                            x       y       z     vdW  Elec       q    Type
REMARK                         _______ _______ _______ _____ _____    ______ ____
ROOT
ATOM      1  N1  CHE B   02     22.608  71.703  10.161  0.00  0.00    -0.337 N 
ATOM      2  C1  CHE B   02     17.105  67.803   5.831  0.00  0.00    +0.157 A 
ATOM      3  N2  CHE B   02     22.567  71.615  10.275  0.00  0.00    -0.224 NA
ATOM      4  C2  CHE B   02     17.684  68.055   6.678  0.00  0.00    +0.089 A 
ATOM      5  C9  CHE B   02     20.680  69.537  10.623  0.00  0.00    +0.067 A 
ATOM      6  S1  CHE B   02     20.623  69.413  10.783  0.00  0.00    -0.050 S 
ATOM      7  H1  CHE B   02     16.584  67.674   4.823  0.00  0.00    +0.144 HD
ATOM      8  H2  CHE B   02     22.024  71.440   9.329  0.00  0.00    +0.144 HD
ENDROOT
BRANCH   5   9
ATOM      9  C10 CHE B   02     20.383  68.896  11.454  0.00  0.00    +0.081 A 
ATOM     10  C11 CHE B   02     24.837  69.661  13.595  0.00  0.00    +0.031 A 
ATOM     11  C12 CHE B   02     20.995  68.446  12.664  0.00  0.00    +0.032 A 
ATOM     12  C13 CHE B   02     22.484  68.122  14.337  0.00  0.00    +0.089 A 
ATOM     13  N3  CHE B   02     22.204  67.517  15.122  0.00  0.00    -0.253 NA
ATOM     14  C14 CHE B   02     22.815  67.067  16.332  0.00  0.00    +0.111 A 
ATOM     15  C15 CHE B   02     21.035  66.762  15.474  0.00  0.00    +0.022 A 
ATOM     16  C16 CHE B   02     22.212  67.535  15.099  0.00  0.00    +0.031 A 
ATOM     17  C17 CHE B   02     24.265  68.427  15.195  0.00  0.00    +0.090 A 
ATOM     18  N4  CHE B   02     20.106  68.297  12.231  0.00  0.00    -0.245 NA
ENDBRANCH   5   9
BRANCH   4  19
ATOM     19  C3  CHE B   02     17.189  67.985   5.594  0.00  0.00    +0.002 A 
ATOM     20  C4  CHE B   02     23.732  67.895  10.210  0.00  0.00    +0.013 A 
ATOM     21  C5  CHE B   02     24.068  67.811   9.684  0.00  0.00    +0.039 A 
ATOM     22  C6  CHE B   02     19.539  67.784   5.631  0.00  0.00    +0.123 A 
ATOM     23  F1  CHE B   02     24.907  67.602   8.373  0.00  0.00    -0.205 F 
ATOM     24  C7  CHE B   02     19.710  67.742   5.364  0.00  0.00    +0.039 A 
ATOM     25  C8  CHE B   02     17.702  67.857   4.793  0.00  0.00    +0.013 A 
ENDBRANCH   4  19
TORSDOF 2
ENDMDL
MODEL 5
REMARK VINA RESULT:      -8.0      3.450      6.499
REMARK  Name = dock_mp/CHEMBL3/CHEMBL361237.pdb
REMARK  2 active torsions:
REMARK  status: ('A' for Active; 'I' for Inactive)
REMARK    1  A    between atoms: C2_4  and  C3_5
REMARK    2  A    between atoms: C9_12  and  C10_13
REMARK                            x       y       z     vdW  Elec       q    Type
REMARK                         _______ _______ _______ _____ _____    ______ ____
ROOT
ATOM      1  N1  CHE B   02     22.781  71.576   9.654  0.00  0.00    -0.337 N 
ATOM      2  C1  CHE B   02     22.521  69.490   1.920  0.00  0.00    +0.157 A 
ATOM      3  N2  CHE B   02     22.874  71.460   9.673  0.00  0.00    -0.224 NA
ATOM      4  C2  CHE B   02     22.801  69.439   2.937  0.00  0.00    +0.089 A 
ATOM      5  C9  CHE B   02     23.968  69.480   7.975  0.00  0.00    +0.067 A 
ATOM      6  S1  CHE B   02     24.098  69.317   8.001  0.00  0.00    -0.050 S 
ATOM      7  H1  CHE B   02     22.111  69.704   0.877  0.00  0.00    +0.144 HD
ATOM      8  H2  CHE B   02     22.513  71.611   8.640  0.00  0.00    +0.144 HD
ENDROOT
BRANCH   5   9
ATOM      9  C10 CHE B   02     24.641  68.634   8.111  0.00  0.00    +0.081 A 
ATOM     10  C11 CHE B   02     26.234  69.179   3.403  0.00  0.00    +0.031 A 
ATOM     11  C12 CHE B   02     25.593  67.946   7.298  0.00  0.00    +0.032 A 
ATOM     12  C13 CHE B   02     26.893  67.332   5.549  0.00  0.00    +0.089 A 
ATOM     13  N3  CHE B   02     27.529  66.532   5.678  0.00  0.00    -0.253 NA
ATOM     14  C14 CHE B   02     28.481  65.845   4.865  0.00  0.00    +0.111 A 
ATOM     15  C15 CHE B   02     27.842  65.628   6.748  0.00  0.00    +0.022 A 
ATOM     16  C16 CHE B   02     27.510  66.556   5.675  0.00  0.00    +0.031 A 
ATOM     17  C17 CHE B   02     27.531  67.549   3.666  0.00  0.00    +0.090 A 
ATOM     18  N4  CHE B   02     25.271  67.842   8.239  0.00  0.00    -0.245 NA
ENDBRANCH   5   9
BRANCH   4  19
ATOM     19  C3  CHE B   02     22.329  69.731   1.881  0.00  0.00    +0.002 A 
ATOM     20  C4  CHE B   02     21.325  67.732   9.570  0.00  0.00    +0.013 A 
ATOM     21  C5  CHE B   02     20.704  67.776   9.472  0.00  0.00    +0.039 A 
ATOM     22  C6  CHE B   02     20.760  69.323   3.594  0.00  0.00    +0.123 A 
ATOM     23  F1  CHE B   02     19.157  67.884   9.226  0.00  0.00    -0.205 F 
ATOM     24  C7  CHE B   02     20.445  69.345   3.544  0.00  0.00    +0.039 A 
ATOM     25  C8  CHE B   02     21.383  69.797   1.731  0.00  0.00    +0.013 A 
ENDBRANCH   4  19
TORSDOF 2
ENDMDL
MODEL 6
REMARK VINA RESULT:      -7.9      3.482      6.624
REMARK  Name = dock_mp/CHEMBL3/CHEMBL361237.pdb
REMARK  2 active torsions:
REMARK  status: ('A' for Active; 'I' for Inactive)
REMARK    1  A    between atoms: C2_4  and  C3_5
REMARK    2  A    between atoms: C9_12  and  C10_13
REMARK                            x       y       z     vdW  Elec       q    Type
REMARK                         _______ _______ _______ _____ _____    ______ ____
ROOT
ATOM      1  N1  CHE B   02     22.793  71.487   9.507  0.00  0.00    -0.337 N 
ATOM      2  C1  CHE B   02     23.027  69.619   1.716  0.00  0.00    +0.157 A 
ATOM      3  N2  CHE B   02     22.880  71.367   9.529  0.00  0.00    -0.224 NA
ATOM      4  C2  CHE B   02     23.232  69.532   2.749  0.00  0.00    +0.089 A 
ATOM      5  C9  CHE B   02     24.031  69.398   7.856  0.00  0.00    +0.067 A 
ATOM      6  S1  CHE B   02     24.154  69.230   7.887  0.00  0.00    -0.050 S 
ATOM      7  H1  CHE B   02     22.701  69.875   0.653  0.00  0.00    +0.144 HD
ATOM      8  H2  CHE B   02     22.600  71.558   8.478  0.00  0.00    +0.144 HD
ENDROOT
BRANCH   5   9
ATOM      9  C10 CHE B   02     24.666  68.526   8.016  0.00  0.00    +0.081 A 
ATOM     10  C11 CHE B   02     22.635  67.915  12.544  0.00  0.00    +0.031 A 
ATOM     11  C12 CHE B   02     24.857  67.583   9.072  0.00  0.00    +0.032 A 
ATOM     12  C13 CHE B   02     24.668  66.481  11.040  0.00  0.00    +0.089 A 
ATOM     13  N3  CHE B   02     25.268  65.657  11.191  0.00  0.00    -0.253 NA
ATOM     14  C14 CHE B   02     25.459  64.714  12.247  0.00  0.00    +0.111 A 
ATOM     15  C15 CHE B   02     26.270  64.960  10.435  0.00  0.00    +0.022 A 
ATOM     16  C16 CHE B   02     25.250  65.681  11.186  0.00  0.00    +0.031 A 
ATOM     17  C17 CHE B   02     23.857  66.235  12.852  0.00  0.00    +0.090 A 
ATOM     18  N4  CHE B   02     25.259  67.710   8.165  0.00  0.00    -0.245 NA
ENDBRANCH   5   9
BRANCH   4  19
ATOM     19  C3  CHE B   02     22.847  69.867   1.671  0.00  0.00    +0.002 A 
ATOM     20  C4  CHE B   02     21.227  67.726   9.215  0.00  0.00    +0.013 A 
ATOM     21  C5  CHE B   02     20.617  67.796   9.075  0.00  0.00    +0.039 A 
ATOM     22  C6  CHE B   02     21.147  69.481   3.259  0.00  0.00    +0.123 A 
ATOM     23  F1  CHE B   02     19.096  67.972   8.725  0.00  0.00    -0.205 F 
ATOM     24  C7  CHE B   02     20.837  69.517   3.188  0.00  0.00    +0.039 A 
ATOM     25  C8  CHE B   02     21.917  69.975   1.457  0.00  0.00    +0.013 A 
ENDBRANCH   4  19
TORSDOF 2
ENDMDL
