MODEL 1
REMARK VINA RESULT:     -11.5      0.000      0.000
REMARK  Name = dock_mp/CHEMBL3/CHEMBL387748.pdb
REMARK  7 active torsions:
REMARK  status: ('A' for Active; 'I' for Inactive)
REMARK    1  A    between atoms: C1_1  and  C2_2
REMARK    2  A    between atoms: C6_6  and  C7_7
REMARK    3  A    between atoms: C8_9  and  C9_10
REMARK    4  A    between atoms: C9_10  and  N2_11
REMARK    5  A    between atoms: N2_11  and  C10_12
REMARK    6  A    between atoms: C14_16  and  C15_17
REMARK    7  A    between atoms: C17_21  and  C18_22
REMARK                            x       y       z     vdW  Elec       q    Type
REMARK                         _______ _______ _______ _____ _____    ______ ____
ROOT
ATOM      1  C7  CHE B   07     18.460  68.682   8.238  0.00  0.00    +0.093 A 
ATOM      2  N1  CHE B   07     17.695  68.827   6.123  0.00  0.00    -0.339 N 
ATOM      3  C8  CHE B   07     18.080  69.114   5.684  0.00  0.00    +0.125 A 
ATOM      4  N4  CHE B   07     19.052  69.122   7.563  0.00  0.00    -0.230 NA
ATOM      5  C17 CHE B   07     16.372  68.199   6.139  0.00  0.00    +0.098 A 
ATOM      6  H7  CHE B   07     17.873  68.959   5.920  0.00  0.00    +0.167 HD
ENDROOT
BRANCH   5   7
ATOM      7  C18 CHE B   07     17.874  68.245   8.907  0.00  0.00    +0.005 A 
ATOM      8  C19 CHE B   07     18.512  68.361   9.674  0.00  0.00    +0.012 A 
ATOM      9  C20 CHE B   07     19.329  68.256  11.729  0.00  0.00    +0.030 A 
ATOM     10  C21 CHE B   07     18.127  67.727  11.605  0.00  0.00    +0.089 A 
ATOM     11  N5  CHE B   07     18.260  67.473  12.947  0.00  0.00    -0.252 NA
ATOM     12  C22 CHE B   07     18.452  67.262  14.221  0.00  0.00    +0.131 A 
ATOM     13  C23 CHE B   07     17.808  67.142  13.461  0.00  0.00    +0.131 A 
ATOM     14  N6  CHE B   07     14.222  66.623   8.587  0.00  0.00    -0.252 NA
ATOM     15  C24 CHE B   07     16.781  67.444  10.151  0.00  0.00    +0.090 A 
ATOM     16  C25 CHE B   07     19.424  68.326  11.621  0.00  0.00    +0.040 A 
ENDBRANCH   5   7
BRANCH   1  22
ATOM     17  C1  CHE B   07     22.645  67.387  11.155  0.00  0.00    +0.065 C 
ATOM     18  C2  CHE B   07     20.040  66.950   6.822  0.00  0.00    +0.039 A 
ATOM     19  C3  CHE B   07     20.094  66.907   6.808  0.00  0.00    +0.023 A 
ATOM     20  C4  CHE B   07     19.856  67.589   7.873  0.00  0.00    +0.004 A 
ATOM     21  C5  CHE B   07     21.142  69.059  12.552  0.00  0.00    +0.030 A 
ATOM     22  C6  CHE B   07     20.694  68.915  11.666  0.00  0.00    +0.090 A 
ATOM     23  N7  CHE B   07     20.158  67.848   8.797  0.00  0.00    -0.250 NA
ENDBRANCH   1  22
BRANCH   3  24
ATOM     24  C9  CHE B   07     24.316  70.897  10.520  0.00  0.00    +0.175 C 
BRANCH  24  25
ATOM     25  N2  CHE B   07     19.645  69.816   4.006  0.00  0.00    -0.337 N 
ATOM     26  H10 CHE B   07     25.544  70.461   9.398  0.00  0.00    +0.147 HD
BRANCH  25  27
ATOM     27  C10 CHE B   07     25.573  70.451   9.372  0.00  0.00    +0.029 A 
ATOM     28  C11 CHE B   07     21.771  70.068   6.110  0.00  0.00    +0.023 A 
ATOM     29  C12 CHE B   07     19.427  69.660   2.844  0.00  0.00    +0.003 A 
ATOM     30  C13 CHE B   07     20.238  69.540   2.081  0.00  0.00    +0.019 A 
ATOM     31  C14 CHE B   07     20.607  69.485   1.734  0.00  0.00    +0.054 A 
ATOM     32  C16 CHE B   07     22.255  69.808   4.287  0.00  0.00    +0.041 A 
BRANCH  31  33
ATOM     33  C15 CHE B   07     24.909  69.793   4.526  0.00  0.00    +0.099 C 
ATOM     34  N3  CHE B   07     22.825  69.364   1.014  0.00  0.00    -0.191 NA
ENDBRANCH  31  33
ENDBRANCH  25  27
ENDBRANCH  24  25
ENDBRANCH   3  24
TORSDOF 6
ENDMDL
MODEL 2
REMARK VINA RESULT:     -10.8      2.039      3.815
REMARK  Name = dock_mp/CHEMBL3/CHEMBL387748.pdb
REMARK  7 active torsions:
REMARK  status: ('A' for Active; 'I' for Inactive)
REMARK    1  A    between atoms: C1_1  and  C2_2
REMARK    2  A    between atoms: C6_6  and  C7_7
REMARK    3  A    between atoms: C8_9  and  C9_10
REMARK    4  A    between atoms: C9_10  and  N2_11
REMARK    5  A    between atoms: N2_11  and  C10_12
REMARK    6  A    between atoms: C14_16  and  C15_17
REMARK    7  A    between atoms: C17_21  and  C18_22
REMARK                            x       y       z     vdW  Elec       q    Type
REMARK                         _______ _______ _______ _____ _____    ______ ____
ROOT
ATOM      1  C7  CHE B   07     20.022  69.237   9.220  0.00  0.00    +0.093 A 
ATOM      2  N1  CHE B   07     17.963  69.093   8.313  0.00  0.00    -0.339 N 
ATOM      3  C8  CHE B   07     17.921  69.074   7.665  0.00  0.00    +0.125 A 
ATOM      4  N4  CHE B   07     19.958  69.209   8.222  0.00  0.00    -0.230 NA
ATOM      5  C17 CHE B   07     17.035  69.065   9.446  0.00  0.00    +0.098 A 
ATOM      6  H7  CHE B   07     17.944  69.084   8.014  0.00  0.00    +0.167 HD
ENDROOT
BRANCH   5   7
ATOM      7  C18 CHE B   07     20.085  69.265  10.207  0.00  0.00    +0.005 A 
ATOM      8  C19 CHE B   07     21.083  69.374  10.236  0.00  0.00    +0.012 A 
ATOM      9  C20 CHE B   07     23.141  69.450  11.047  0.00  0.00    +0.030 A 
ATOM     10  C21 CHE B   07     22.222  69.165  11.949  0.00  0.00    +0.089 A 
ATOM     11  N5  CHE B   07     23.290  69.117  12.810  0.00  0.00    -0.252 NA
ATOM     12  C22 CHE B   07     24.349  69.088  13.573  0.00  0.00    +0.131 A 
ATOM     13  C23 CHE B   07     23.352  68.977  13.554  0.00  0.00    +0.131 A 
ATOM     14  N6  CHE B   07     17.333  68.396  12.991  0.00  0.00    -0.252 NA
ATOM     15  C24 CHE B   07     20.237  68.925  12.009  0.00  0.00    +0.090 A 
ATOM     16  C25 CHE B   07     23.128  69.480  10.890  0.00  0.00    +0.040 A 
ENDBRANCH   5   7
BRANCH   1  22
ATOM     17  C1  CHE B   07     24.876  67.207   9.130  0.00  0.00    +0.065 C 
ATOM     18  C2  CHE B   07     19.902  66.668   8.278  0.00  0.00    +0.039 A 
ATOM     19  C3  CHE B   07     19.924  66.605   8.258  0.00  0.00    +0.023 A 
ATOM     20  C4  CHE B   07     20.603  67.602   8.707  0.00  0.00    +0.004 A 
ATOM     21  C5  CHE B   07     25.028  69.686  10.043  0.00  0.00    +0.030 A 
ATOM     22  C6  CHE B   07     24.063  69.493   9.846  0.00  0.00    +0.090 A 
ATOM     23  N7  CHE B   07     21.507  67.966   8.958  0.00  0.00    -0.250 NA
ENDBRANCH   1  22
BRANCH   3  24
ATOM     24  C9  CHE B   07     25.814  69.501   5.934  0.00  0.00    +0.175 C 
BRANCH  24  25
ATOM     25  N2  CHE B   07     17.837  68.272   5.404  0.00  0.00    -0.337 N 
ATOM     26  H10 CHE B   07     25.559  70.165   4.368  0.00  0.00    +0.147 HD
BRANCH  25  27
ATOM     27  C10 CHE B   07     25.553  70.180   4.332  0.00  0.00    +0.029 A 
ATOM     28  C11 CHE B   07     20.744  68.969   5.134  0.00  0.00    +0.023 A 
ATOM     29  C12 CHE B   07     16.802  68.138   4.828  0.00  0.00    +0.003 A 
ATOM     30  C13 CHE B   07     16.691  68.299   3.725  0.00  0.00    +0.019 A 
ATOM     31  C14 CHE B   07     16.641  68.372   3.223  0.00  0.00    +0.054 A 
ATOM     32  C16 CHE B   07     19.613  68.973   3.602  0.00  0.00    +0.041 A 
BRANCH  31  33
ATOM     33  C15 CHE B   07     21.382  69.683   1.742  0.00  0.00    +0.099 C 
ATOM     34  N3  CHE B   07     17.328  69.311   1.199  0.00  0.00    -0.191 NA
ENDBRANCH  31  33
ENDBRANCH  25  27
ENDBRANCH  24  25
ENDBRANCH   3  24
TORSDOF 6
ENDMDL
MODEL 3
REMARK VINA RESULT:     -10.6      1.921      6.180
REMARK  Name = dock_mp/CHEMBL3/CHEMBL387748.pdb
REMARK  7 active torsions:
REMARK  status: ('A' for Active; 'I' for Inactive)
REMARK    1  A    between atoms: C1_1  and  C2_2
REMARK    2  A    between atoms: C6_6  and  C7_7
REMARK    3  A    between atoms: C8_9  and  C9_10
REMARK    4  A    between atoms: C9_10  and  N2_11
REMARK    5  A    between atoms: N2_11  and  C10_12
REMARK    6  A    between atoms: C14_16  and  C15_17
REMARK    7  A    between atoms: C17_21  and  C18_22
REMARK                            x       y       z     vdW  Elec       q    Type
REMARK                         _______ _______ _______ _____ _____    ______ ____
ROOT
ATOM      1  C7  CHE B   07     20.685  69.804   6.453  0.00  0.00    +0.093 A 
ATOM      2  N1  CHE B   07     19.339  69.517   4.668  0.00  0.00    -0.339 N 
ATOM      3  C8  CHE B   07     18.718  69.361   4.783  0.00  0.00    +0.125 A 
ATOM      4  N4  CHE B   07     19.731  69.564   6.629  0.00  0.00    -0.230 NA
ATOM      5  C17 CHE B   07     20.183  69.755   3.495  0.00  0.00    +0.098 A 
ATOM      6  H7  CHE B   07     19.052  69.445   4.721  0.00  0.00    +0.167 HD
ENDROOT
BRANCH   5   7
ATOM      7  C18 CHE B   07     21.630  70.041   6.278  0.00  0.00    +0.005 A 
ATOM      8  C19 CHE B   07     21.887  70.157   7.242  0.00  0.00    +0.012 A 
ATOM      9  C20 CHE B   07     23.156  70.321   9.049  0.00  0.00    +0.030 A 
ATOM     10  C21 CHE B   07     23.835  70.125   7.935  0.00  0.00    +0.089 A 
ATOM     11  N5  CHE B   07     24.927  70.167   8.765  0.00  0.00    -0.252 NA
ATOM     12  C22 CHE B   07     25.921  70.218   9.610  0.00  0.00    +0.131 A 
ATOM     13  C23 CHE B   07     25.675  70.102   8.645  0.00  0.00    +0.131 A 
ATOM     14  N6  CHE B   07     23.744  69.444   2.924  0.00  0.00    -0.252 NA
ATOM     15  C24 CHE B   07     23.441  69.884   5.988  0.00  0.00    +0.090 A 
ATOM     16  C25 CHE B   07     22.999  70.335   9.074  0.00  0.00    +0.040 A 
ENDBRANCH   5   7
BRANCH   1  22
ATOM     17  C1  CHE B   07     22.025  67.726  11.099  0.00  0.00    +0.065 C 
ATOM     18  C2  CHE B   07     20.057  67.138   6.458  0.00  0.00    +0.039 A 
ATOM     19  C3  CHE B   07     20.051  67.072   6.482  0.00  0.00    +0.023 A 
ATOM     20  C4  CHE B   07     20.530  68.111   7.073  0.00  0.00    +0.004 A 
ATOM     21  C5  CHE B   07     22.644  70.298  11.128  0.00  0.00    +0.030 A 
ATOM     22  C6  CHE B   07     22.243  70.093  10.232  0.00  0.00    +0.090 A 
ATOM     23  N7  CHE B   07     20.947  68.494   7.904  0.00  0.00    -0.250 NA
ENDBRANCH   1  22
BRANCH   3  24
ATOM     24  C9  CHE B   07     18.978  69.222  12.868  0.00  0.00    +0.175 C 
BRANCH  24  25
ATOM     25  N2  CHE B   07     16.577  68.358   5.193  0.00  0.00    -0.337 N 
ATOM     26  H10 CHE B   07     17.316  68.887  13.159  0.00  0.00    +0.147 HD
BRANCH  25  27
ATOM     27  C10 CHE B   07     17.278  68.879  13.166  0.00  0.00    +0.029 A 
ATOM     28  C11 CHE B   07     16.900  68.670   8.160  0.00  0.00    +0.023 A 
ATOM     29  C12 CHE B   07     16.164  67.660   4.318  0.00  0.00    +0.003 A 
ATOM     30  C13 CHE B   07     15.660  66.678   4.507  0.00  0.00    +0.019 A 
ATOM     31  C14 CHE B   07     15.430  66.231   4.593  0.00  0.00    +0.054 A 
ATOM     32  C16 CHE B   07     16.050  67.123   7.449  0.00  0.00    +0.041 A 
BRANCH  31  33
ATOM     33  C15 CHE B   07     15.496  65.835   9.714  0.00  0.00    +0.099 C 
ATOM     34  N3  CHE B   07     13.850  65.241   5.999  0.00  0.00    -0.191 NA
ENDBRANCH  31  33
ENDBRANCH  25  27
ENDBRANCH  24  25
ENDBRANCH   3  24
TORSDOF 6
ENDMDL
MODEL 4
REMARK VINA RESULT:      -9.9      2.339      7.011
REMARK  Name = dock_mp/CHEMBL3/CHEMBL387748.pdb
REMARK  7 active torsions:
REMARK  status: ('A' for Active; 'I' for Inactive)
REMARK    1  A    between atoms: C1_1  and  C2_2
REMARK    2  A    between atoms: C6_6  and  C7_7
REMARK    3  A    between atoms: C8_9  and  C9_10
REMARK    4  A    between atoms: C9_10  and  N2_11
REMARK    5  A    between atoms: N2_11  and  C10_12
REMARK    6  A    between atoms: C14_16  and  C15_17
REMARK    7  A    between atoms: C17_21  and  C18_22
REMARK                            x       y       z     vdW  Elec       q    Type
REMARK                         _______ _______ _______ _____ _____    ______ ____
ROOT
ATOM      1  C7  CHE B   07     20.087  69.896   7.668  0.00  0.00    +0.093 A 
ATOM      2  N1  CHE B   07     22.215  70.629   7.546  0.00  0.00    -0.339 N 
ATOM      3  C8  CHE B   07     22.542  70.694   8.104  0.00  0.00    +0.125 A 
ATOM      4  N4  CHE B   07     20.590  69.996   8.526  0.00  0.00    -0.230 NA
ATOM      5  C17 CHE B   07     22.479  70.837   6.121  0.00  0.00    +0.098 A 
ATOM      6  H7  CHE B   07     22.366  70.659   7.804  0.00  0.00    +0.167 HD
ENDROOT
BRANCH   5   7
ATOM      7  C18 CHE B   07     19.589  69.797   6.818  0.00  0.00    +0.005 A 
ATOM      8  C19 CHE B   07     18.715  69.542   7.242  0.00  0.00    +0.012 A 
ATOM      9  C20 CHE B   07     16.667  68.726   7.450  0.00  0.00    +0.030 A 
ATOM     10  C21 CHE B   07     17.170  68.604   6.237  0.00  0.00    +0.089 A 
ATOM     11  N5  CHE B   07     15.965  68.012   5.954  0.00  0.00    -0.252 NA
ATOM     12  C22 CHE B   07     14.799  67.459   5.755  0.00  0.00    +0.131 A 
ATOM     13  C23 CHE B   07     15.669  67.710   5.323  0.00  0.00    +0.131 A 
ATOM     14  N6  CHE B   07     21.067  69.401   3.113  0.00  0.00    -0.252 NA
ATOM     15  C24 CHE B   07     18.871  69.067   5.290  0.00  0.00    +0.090 A 
ATOM     16  C25 CHE B   07     16.730  68.789   7.583  0.00  0.00    +0.040 A 
ENDBRANCH   5   7
BRANCH   1  22
ATOM     17  C1  CHE B   07     16.971  66.244   9.824  0.00  0.00    +0.065 C 
ATOM     18  C2  CHE B   07     21.595  67.707   8.328  0.00  0.00    +0.039 A 
ATOM     19  C3  CHE B   07     21.610  67.643   8.352  0.00  0.00    +0.023 A 
ATOM     20  C4  CHE B   07     20.475  68.247   8.305  0.00  0.00    +0.004 A 
ATOM     21  C5  CHE B   07     15.485  68.342   9.199  0.00  0.00    +0.030 A 
ATOM     22  C6  CHE B   07     16.430  68.549   8.933  0.00  0.00    +0.090 A 
ATOM     23  N7  CHE B   07     19.489  68.213   8.505  0.00  0.00    -0.250 NA
ENDBRANCH   1  22
BRANCH   3  24
ATOM     24  C9  CHE B   07     16.733  68.299  13.201  0.00  0.00    +0.175 C 
BRANCH  24  25
ATOM     25  N2  CHE B   07     23.814  70.727  10.139  0.00  0.00    -0.337 N 
ATOM     26  H10 CHE B   07     17.763  67.219  14.057  0.00  0.00    +0.147 HD
BRANCH  25  27
ATOM     27  C10 CHE B   07     17.786  67.194  14.077  0.00  0.00    +0.029 A 
ATOM     28  C11 CHE B   07     21.481  69.425  11.506  0.00  0.00    +0.023 A 
ATOM     29  C12 CHE B   07     24.960  71.044  10.239  0.00  0.00    +0.003 A 
ATOM     30  C13 CHE B   07     25.569  70.849  11.159  0.00  0.00    +0.019 A 
ATOM     31  C14 CHE B   07     25.846  70.761  11.578  0.00  0.00    +0.054 A 
ATOM     32  C16 CHE B   07     23.154  69.574  12.403  0.00  0.00    +0.041 A 
BRANCH  31  33
ATOM     33  C15 CHE B   07     22.526  68.410  14.716  0.00  0.00    +0.099 C 
ATOM     34  N3  CHE B   07     26.236  69.842  13.688  0.00  0.00    -0.191 NA
ENDBRANCH  31  33
ENDBRANCH  25  27
ENDBRANCH  24  25
ENDBRANCH   3  24
TORSDOF 6
ENDMDL
MODEL 5
REMARK VINA RESULT:      -9.9      2.384      6.524
REMARK  Name = dock_mp/CHEMBL3/CHEMBL387748.pdb
REMARK  7 active torsions:
REMARK  status: ('A' for Active; 'I' for Inactive)
REMARK    1  A    between atoms: C1_1  and  C2_2
REMARK    2  A    between atoms: C6_6  and  C7_7
REMARK    3  A    between atoms: C8_9  and  C9_10
REMARK    4  A    between atoms: C9_10  and  N2_11
REMARK    5  A    between atoms: N2_11  and  C10_12
REMARK    6  A    between atoms: C14_16  and  C15_17
REMARK    7  A    between atoms: C17_21  and  C18_22
REMARK                            x       y       z     vdW  Elec       q    Type
REMARK                         _______ _______ _______ _____ _____    ______ ____
ROOT
ATOM      1  C7  CHE B   07     17.320  68.040   8.177  0.00  0.00    +0.093 A 
ATOM      2  N1  CHE B   07     18.540  68.592   9.990  0.00  0.00    -0.339 N 
ATOM      3  C8  CHE B   07     19.008  69.035   9.913  0.00  0.00    +0.125 A 
ATOM      4  N4  CHE B   07     18.041  68.722   8.057  0.00  0.00    -0.230 NA
ATOM      5  C17 CHE B   07     18.002  67.783  11.087  0.00  0.00    +0.098 A 
ATOM      6  H7  CHE B   07     18.756  68.796   9.955  0.00  0.00    +0.167 HD
ENDROOT
BRANCH   5   7
ATOM      7  C18 CHE B   07     16.606  67.364   8.295  0.00  0.00    +0.005 A 
ATOM      8  C19 CHE B   07     16.283  67.404   7.345  0.00  0.00    +0.012 A 
ATOM      9  C20 CHE B   07     15.159  66.884   5.509  0.00  0.00    +0.030 A 
ATOM     10  C21 CHE B   07     14.889  66.106   6.540  0.00  0.00    +0.089 A 
ATOM     11  N5  CHE B   07     14.037  65.484   5.662  0.00  0.00    -0.252 NA
ATOM     12  C22 CHE B   07     13.248  64.940   4.775  0.00  0.00    +0.131 A 
ATOM     13  C23 CHE B   07     13.564  64.893   5.726  0.00  0.00    +0.131 A 
ATOM     14  N6  CHE B   07     15.746  64.969  11.393  0.00  0.00    -0.252 NA
ATOM     15  C24 CHE B   07     15.459  65.934   8.450  0.00  0.00    +0.090 A 
ATOM     16  C25 CHE B   07     15.259  67.008   5.496  0.00  0.00    +0.040 A 
ENDBRANCH   5   7
BRANCH   1  22
ATOM     17  C1  CHE B   07     17.631  66.696   3.098  0.00  0.00    +0.065 C 
ATOM     18  C2  CHE B   07     19.789  66.961   7.684  0.00  0.00    +0.039 A 
ATOM     19  C3  CHE B   07     19.841  66.932   7.648  0.00  0.00    +0.023 A 
ATOM     20  C4  CHE B   07     18.674  67.288   7.240  0.00  0.00    +0.004 A 
ATOM     21  C5  CHE B   07     15.237  67.734   3.539  0.00  0.00    +0.030 A 
ATOM     22  C6  CHE B   07     15.739  67.747   4.407  0.00  0.00    +0.090 A 
ATOM     23  N7  CHE B   07     18.030  67.353   6.470  0.00  0.00    -0.250 NA
ENDBRANCH   1  22
BRANCH   3  24
ATOM     24  C9  CHE B   07     18.004  70.490   2.017  0.00  0.00    +0.175 C 
BRANCH  24  25
ATOM     25  N2  CHE B   07     20.905  70.464   9.567  0.00  0.00    -0.337 N 
ATOM     26  H10 CHE B   07     19.461  69.624   1.725  0.00  0.00    +0.147 HD
BRANCH  25  27
ATOM     27  C10 CHE B   07     19.495  69.604   1.719  0.00  0.00    +0.029 A 
ATOM     28  C11 CHE B   07     20.248  70.132   6.658  0.00  0.00    +0.023 A 
ATOM     29  C12 CHE B   07     21.778  70.619  10.365  0.00  0.00    +0.003 A 
ATOM     30  C13 CHE B   07     22.859  70.694  10.082  0.00  0.00    +0.019 A 
ATOM     31  C14 CHE B   07     23.351  70.728   9.952  0.00  0.00    +0.054 A 
ATOM     32  C16 CHE B   07     22.056  70.353   7.210  0.00  0.00    +0.041 A 
BRANCH  31  33
ATOM     33  C15 CHE B   07     23.264  70.245   4.838  0.00  0.00    +0.099 C 
ATOM     34  N3  CHE B   07     25.044  69.977   8.530  0.00  0.00    -0.191 NA
ENDBRANCH  31  33
ENDBRANCH  25  27
ENDBRANCH  24  25
ENDBRANCH   3  24
TORSDOF 6
ENDMDL
MODEL 6
REMARK VINA RESULT:      -9.9      2.304      7.303
REMARK  Name = dock_mp/CHEMBL3/CHEMBL387748.pdb
REMARK  7 active torsions:
REMARK  status: ('A' for Active; 'I' for Inactive)
REMARK    1  A    between atoms: C1_1  and  C2_2
REMARK    2  A    between atoms: C6_6  and  C7_7
REMARK    3  A    between atoms: C8_9  and  C9_10
REMARK    4  A    between atoms: C9_10  and  N2_11
REMARK    5  A    between atoms: N2_11  and  C10_12
REMARK    6  A    between atoms: C14_16  and  C15_17
REMARK    7  A    between atoms: C17_21  and  C18_22
REMARK                            x       y       z     vdW  Elec       q    Type
REMARK                         _______ _______ _______ _____ _____    ______ ____
ROOT
ATOM      1  C7  CHE B   07     20.484  68.254   7.504  0.00  0.00    +0.093 A 
ATOM      2  N1  CHE B   07     20.425  67.652   9.676  0.00  0.00    -0.339 N 
ATOM      3  C8  CHE B   07     20.989  67.503   9.961  0.00  0.00    +0.125 A 
ATOM      4  N4  CHE B   07     21.353  68.025   7.944  0.00  0.00    -0.230 NA
ATOM      5  C17 CHE B   07     19.014  67.715  10.063  0.00  0.00    +0.098 A 
ATOM      6  H7  CHE B   07     20.685  67.583   9.808  0.00  0.00    +0.167 HD
ENDROOT
BRANCH   5   7
ATOM      7  C18 CHE B   07     19.624  68.481   7.069  0.00  0.00    +0.005 A 
ATOM      8  C19 CHE B   07     20.029  68.714   6.181  0.00  0.00    +0.012 A 
ATOM      9  C20 CHE B   07     20.165  69.255   4.038  0.00  0.00    +0.030 A 
ATOM     10  C21 CHE B   07     18.929  69.112   4.476  0.00  0.00    +0.089 A 
ATOM     11  N5  CHE B   07     18.590  69.426   3.183  0.00  0.00    -0.252 NA
ATOM     12  C22 CHE B   07     18.338  69.731   1.939  0.00  0.00    +0.131 A 
ATOM     13  C23 CHE B   07     17.925  69.499   2.823  0.00  0.00    +0.131 A 
ATOM     14  N6  CHE B   07     15.846  68.061   8.345  0.00  0.00    -0.252 NA
ATOM     15  C24 CHE B   07     18.014  68.657   6.196  0.00  0.00    +0.090 A 
ATOM     16  C25 CHE B   07     20.305  69.239   4.114  0.00  0.00    +0.040 A 
ENDBRANCH   5   7
BRANCH   1  22
ATOM     17  C1  CHE B   07     22.985  71.301   4.017  0.00  0.00    +0.065 C 
ATOM     18  C2  CHE B   07     21.674  70.339   8.825  0.00  0.00    +0.039 A 
ATOM     19  C3  CHE B   07     21.711  70.397   8.834  0.00  0.00    +0.023 A 
ATOM     20  C4  CHE B   07     21.449  69.767   7.743  0.00  0.00    +0.004 A 
ATOM     21  C5  CHE B   07     21.849  69.300   2.710  0.00  0.00    +0.030 A 
ATOM     22  C6  CHE B   07     21.637  69.186   3.684  0.00  0.00    +0.090 A 
ATOM     23  N7  CHE B   07     21.560  69.722   6.744  0.00  0.00    -0.250 NA
ENDBRANCH   1  22
BRANCH   3  24
ATOM     24  C9  CHE B   07     25.892  68.682   3.634  0.00  0.00    +0.175 C 
BRANCH  24  25
ATOM     25  N2  CHE B   07     23.047  67.819  11.156  0.00  0.00    -0.337 N 
ATOM     26  H10 CHE B   07     27.383  68.800   4.484  0.00  0.00    +0.147 HD
BRANCH  25  27
ATOM     27  C10 CHE B   07     27.418  68.802   4.503  0.00  0.00    +0.029 A 
ATOM     28  C11 CHE B   07     24.613  68.088   8.610  0.00  0.00    +0.023 A 
ATOM     29  C12 CHE B   07     22.893  68.236  12.263  0.00  0.00    +0.003 A 
ATOM     30  C13 CHE B   07     23.501  69.073  12.690  0.00  0.00    +0.019 A 
ATOM     31  C14 CHE B   07     23.779  69.454  12.885  0.00  0.00    +0.054 A 
ATOM     32  C16 CHE B   07     24.986  69.229  10.087  0.00  0.00    +0.041 A 
BRANCH  31  33
ATOM     33  C15 CHE B   07     26.958  70.684   9.042  0.00  0.00    +0.099 C 
ATOM     34  N3  CHE B   07     25.503  71.028  12.867  0.00  0.00    -0.191 NA
ENDBRANCH  31  33
ENDBRANCH  25  27
ENDBRANCH  24  25
ENDBRANCH   3  24
TORSDOF 6
ENDMDL
MODEL 7
REMARK VINA RESULT:      -9.9      3.023      7.557
REMARK  Name = dock_mp/CHEMBL3/CHEMBL387748.pdb
REMARK  7 active torsions:
REMARK  status: ('A' for Active; 'I' for Inactive)
REMARK    1  A    between atoms: C1_1  and  C2_2
REMARK    2  A    between atoms: C6_6  and  C7_7
REMARK    3  A    between atoms: C8_9  and  C9_10
REMARK    4  A    between atoms: C9_10  and  N2_11
REMARK    5  A    between atoms: N2_11  and  C10_12
REMARK    6  A    between atoms: C14_16  and  C15_17
REMARK    7  A    between atoms: C17_21  and  C18_22
REMARK                            x       y       z     vdW  Elec       q    Type
REMARK                         _______ _______ _______ _____ _____    ______ ____
ROOT
ATOM      1  C7  CHE B   07     21.650  68.242   9.538  0.00  0.00    +0.093 A 
ATOM      2  N1  CHE B   07     23.859  68.501   9.173  0.00  0.00    -0.339 N 
ATOM      3  C8  CHE B   07     24.263  68.357   9.662  0.00  0.00    +0.125 A 
ATOM      4  N4  CHE B   07     22.271  68.021  10.290  0.00  0.00    -0.230 NA
ATOM      5  C17 CHE B   07     23.977  68.982   7.795  0.00  0.00    +0.098 A 
ATOM      6  H7  CHE B   07     24.046  68.434   9.398  0.00  0.00    +0.167 HD
ENDROOT
BRANCH   5   7
ATOM      7  C18 CHE B   07     21.035  68.462   8.793  0.00  0.00    +0.005 A 
ATOM      8  C19 CHE B   07     20.198  68.184   9.272  0.00  0.00    +0.012 A 
ATOM      9  C20 CHE B   07     18.044  67.978   9.741  0.00  0.00    +0.030 A 
ATOM     10  C21 CHE B   07     18.289  68.690   8.658  0.00  0.00    +0.089 A 
ATOM     11  N5  CHE B   07     16.923  68.799   8.596  0.00  0.00    -0.252 NA
ATOM     12  C22 CHE B   07     15.618  68.863   8.599  0.00  0.00    +0.131 A 
ATOM     13  C23 CHE B   07     16.449  69.146   8.113  0.00  0.00    +0.131 A 
ATOM     14  N6  CHE B   07     21.723  70.633   5.493  0.00  0.00    -0.252 NA
ATOM     15  C24 CHE B   07     19.889  69.301   7.623  0.00  0.00    +0.090 A 
ATOM     16  C25 CHE B   07     18.143  67.905   9.842  0.00  0.00    +0.040 A 
ENDBRANCH   5   7
BRANCH   1  22
ATOM     17  C1  CHE B   07     17.736  69.290  12.897  0.00  0.00    +0.065 C 
ATOM     18  C2  CHE B   07     22.314  70.440  11.032  0.00  0.00    +0.039 A 
ATOM     19  C3  CHE B   07     22.308  70.490  11.080  0.00  0.00    +0.023 A 
ATOM     20  C4  CHE B   07     21.483  69.550  10.778  0.00  0.00    +0.004 A 
ATOM     21  C5  CHE B   07     17.063  67.165  11.471  0.00  0.00    +0.030 A 
ATOM     22  C6  CHE B   07     17.970  67.462  11.162  0.00  0.00    +0.090 A 
ATOM     23  N7  CHE B   07     20.593  69.114  10.957  0.00  0.00    -0.250 NA
ENDBRANCH   1  22
BRANCH   3  24
ATOM     24  C9  CHE B   07     18.758  66.134  15.159  0.00  0.00    +0.175 C 
BRANCH  24  25
ATOM     25  N2  CHE B   07     25.502  68.890  11.646  0.00  0.00    -0.337 N 
ATOM     26  H10 CHE B   07     19.875  65.023  15.849  0.00  0.00    +0.147 HD
BRANCH  25  27
ATOM     27  C10 CHE B   07     19.901  64.997  15.865  0.00  0.00    +0.029 A 
ATOM     28  C11 CHE B   07     23.378  67.362  13.116  0.00  0.00    +0.023 A 
ATOM     29  C12 CHE B   07     26.328  69.747  11.725  0.00  0.00    +0.003 A 
ATOM     30  C13 CHE B   07     26.524  70.321  12.667  0.00  0.00    +0.019 A 
ATOM     31  C14 CHE B   07     26.614  70.582  13.095  0.00  0.00    +0.054 A 
ATOM     32  C16 CHE B   07     24.375  68.715  14.010  0.00  0.00    +0.041 A 
BRANCH  31  33
ATOM     33  C15 CHE B   07     23.257  68.571  16.425  0.00  0.00    +0.099 C 
ATOM     34  N3  CHE B   07     26.395  71.007  15.381  0.00  0.00    -0.191 NA
ENDBRANCH  31  33
ENDBRANCH  25  27
ENDBRANCH  24  25
ENDBRANCH   3  24
TORSDOF 6
ENDMDL
MODEL 8
REMARK VINA RESULT:      -9.5      2.481      5.245
REMARK  Name = dock_mp/CHEMBL3/CHEMBL387748.pdb
REMARK  7 active torsions:
REMARK  status: ('A' for Active; 'I' for Inactive)
REMARK    1  A    between atoms: C1_1  and  C2_2
REMARK    2  A    between atoms: C6_6  and  C7_7
REMARK    3  A    between atoms: C8_9  and  C9_10
REMARK    4  A    between atoms: C9_10  and  N2_11
REMARK    5  A    between atoms: N2_11  and  C10_12
REMARK    6  A    between atoms: C14_16  and  C15_17
REMARK    7  A    between atoms: C17_21  and  C18_22
REMARK                            x       y       z     vdW  Elec       q    Type
REMARK                         _______ _______ _______ _____ _____    ______ ____
ROOT
ATOM      1  C7  CHE B   07     19.328  68.835  10.251  0.00  0.00    +0.093 A 
ATOM      2  N1  CHE B   07     17.195  68.107  10.224  0.00  0.00    -0.339 N 
ATOM      3  C8  CHE B   07     16.890  68.093   9.650  0.00  0.00    +0.125 A 
ATOM      4  N4  CHE B   07     18.859  68.814   9.368  0.00  0.00    -0.230 NA
ATOM      5  C17 CHE B   07     16.874  67.776  11.614  0.00  0.00    +0.098 A 
ATOM      6  H7  CHE B   07     17.054  68.100   9.959  0.00  0.00    +0.167 HD
ENDROOT
BRANCH   5   7
ATOM      7  C18 CHE B   07     19.792  68.856  11.125  0.00  0.00    +0.005 A 
ATOM      8  C19 CHE B   07     20.646  69.244  10.767  0.00  0.00    +0.012 A 
ATOM      9  C20 CHE B   07     22.751  69.927  10.704  0.00  0.00    +0.030 A 
ATOM     10  C21 CHE B   07     22.388  69.423  11.868  0.00  0.00    +0.089 A 
ATOM     11  N5  CHE B   07     23.680  69.707  12.231  0.00  0.00    -0.252 NA
ATOM     12  C22 CHE B   07     24.921  70.004  12.509  0.00  0.00    +0.131 A 
ATOM     13  C23 CHE B   07     24.073  69.614  12.875  0.00  0.00    +0.131 A 
ATOM     14  N6  CHE B   07     18.742  67.334  14.683  0.00  0.00    -0.252 NA
ATOM     15  C24 CHE B   07     20.742  68.632  12.685  0.00  0.00    +0.090 A 
ATOM     16  C25 CHE B   07     22.669  69.946  10.569  0.00  0.00    +0.040 A 
ENDBRANCH   5   7
BRANCH   1  22
ATOM     17  C1  CHE B   07     23.920  68.473   7.707  0.00  0.00    +0.065 C 
ATOM     18  C2  CHE B   07     19.370  66.511   8.803  0.00  0.00    +0.039 A 
ATOM     19  C3  CHE B   07     19.394  66.461   8.760  0.00  0.00    +0.023 A 
ATOM     20  C4  CHE B   07     19.960  67.552   9.143  0.00  0.00    +0.004 A 
ATOM     21  C5  CHE B   07     23.913  70.727   9.094  0.00  0.00    +0.030 A 
ATOM     22  C6  CHE B   07     23.036  70.268   9.255  0.00  0.00    +0.090 A 
ATOM     23  N7  CHE B   07     20.771  68.145   9.098  0.00  0.00    -0.250 NA
ENDBRANCH   1  22
BRANCH   3  24
ATOM     24  C9  CHE B   07     22.903  70.895   5.018  0.00  0.00    +0.175 C 
BRANCH  24  25
ATOM     25  N2  CHE B   07     15.926  67.641   7.499  0.00  0.00    -0.337 N 
ATOM     26  H10 CHE B   07     22.464  70.095   3.560  0.00  0.00    +0.147 HD
BRANCH  25  27
ATOM     27  C10 CHE B   07     22.454  70.077   3.526  0.00  0.00    +0.029 A 
ATOM     28  C11 CHE B   07     18.422  68.591   6.129  0.00  0.00    +0.023 A 
ATOM     29  C12 CHE B   07     14.854  67.141   7.350  0.00  0.00    +0.003 A 
ATOM     30  C13 CHE B   07     14.456  66.836   6.349  0.00  0.00    +0.019 A 
ATOM     31  C14 CHE B   07     14.275  66.697   5.893  0.00  0.00    +0.054 A 
ATOM     32  C16 CHE B   07     17.005  67.826   5.113  0.00  0.00    +0.041 A 
BRANCH  31  33
ATOM     33  C15 CHE B   07     18.062  67.995   2.673  0.00  0.00    +0.099 C 
ATOM     34  N3  CHE B   07     14.701  65.891   3.743  0.00  0.00    -0.191 NA
ENDBRANCH  31  33
ENDBRANCH  25  27
ENDBRANCH  24  25
ENDBRANCH   3  24
TORSDOF 6
ENDMDL
MODEL 9
REMARK VINA RESULT:      -9.3      2.741      6.557
REMARK  Name = dock_mp/CHEMBL3/CHEMBL387748.pdb
REMARK  7 active torsions:
REMARK  status: ('A' for Active; 'I' for Inactive)
REMARK    1  A    between atoms: C1_1  and  C2_2
REMARK    2  A    between atoms: C6_6  and  C7_7
REMARK    3  A    between atoms: C8_9  and  C9_10
REMARK    4  A    between atoms: C9_10  and  N2_11
REMARK    5  A    between atoms: N2_11  and  C10_12
REMARK    6  A    between atoms: C14_16  and  C15_17
REMARK    7  A    between atoms: C17_21  and  C18_22
REMARK                            x       y       z     vdW  Elec       q    Type
REMARK                         _______ _______ _______ _____ _____    ______ ____
ROOT
ATOM      1  C7  CHE B   07     22.455  68.527   9.295  0.00  0.00    +0.093 A 
ATOM      2  N1  CHE B   07     21.617  69.739   7.589  0.00  0.00    -0.339 N 
ATOM      3  C8  CHE B   07     20.989  69.902   7.617  0.00  0.00    +0.125 A 
ATOM      4  N4  CHE B   07     21.489  68.779   9.339  0.00  0.00    -0.230 NA
ATOM      5  C17 CHE B   07     22.736  69.944   6.666  0.00  0.00    +0.098 A 
ATOM      6  H7  CHE B   07     21.327  69.814   7.602  0.00  0.00    +0.167 HD
ENDROOT
BRANCH   5   7
ATOM      7  C18 CHE B   07     23.413  68.278   9.251  0.00  0.00    +0.005 A 
ATOM      8  C19 CHE B   07     23.411  67.757  10.109  0.00  0.00    +0.012 A 
ATOM      9  C20 CHE B   07     24.169  66.599  11.838  0.00  0.00    +0.030 A 
ATOM     10  C21 CHE B   07     25.110  66.979  10.996  0.00  0.00    +0.089 A 
ATOM     11  N5  CHE B   07     25.948  66.331  11.868  0.00  0.00    -0.252 NA
ATOM     12  C22 CHE B   07     26.688  65.698  12.738  0.00  0.00    +0.131 A 
ATOM     13  C23 CHE B   07     26.700  66.218  11.880  0.00  0.00    +0.131 A 
ATOM     14  N6  CHE B   07     26.315  69.405   6.725  0.00  0.00    -0.252 NA
ATOM     15  C24 CHE B   07     25.232  68.004   9.281  0.00  0.00    +0.090 A 
ATOM     16  C25 CHE B   07     24.010  66.623  11.836  0.00  0.00    +0.040 A 
ENDBRANCH   5   7
BRANCH   1  22
ATOM     17  C1  CHE B   07     22.812  68.197  14.535  0.00  0.00    +0.065 C 
ATOM     18  C2  CHE B   07     22.139  71.024  10.375  0.00  0.00    +0.039 A 
ATOM     19  C3  CHE B   07     22.134  71.074  10.424  0.00  0.00    +0.023 A 
ATOM     20  C4  CHE B   07     22.334  69.811  10.565  0.00  0.00    +0.004 A 
ATOM     21  C5  CHE B   07     23.122  65.771  13.526  0.00  0.00    +0.030 A 
ATOM     22  C6  CHE B   07     22.981  66.403  12.760  0.00  0.00    +0.090 A 
ATOM     23  N7  CHE B   07     22.488  69.044  11.198  0.00  0.00    -0.250 NA
ENDBRANCH   1  22
BRANCH   3  24
ATOM     24  C9  CHE B   07     19.149  66.406  14.679  0.00  0.00    +0.175 C 
BRANCH  24  25
ATOM     25  N2  CHE B   07     18.903  68.896   6.987  0.00  0.00    -0.337 N 
ATOM     26  H10 CHE B   07     17.489  66.848  14.609  0.00  0.00    +0.147 HD
BRANCH  25  27
ATOM     27  C10 CHE B   07     17.450  66.859  14.607  0.00  0.00    +0.029 A 
ATOM     28  C11 CHE B   07     18.460  68.213   9.876  0.00  0.00    +0.023 A 
ATOM     29  C12 CHE B   07     18.534  68.716   5.867  0.00  0.00    +0.003 A 
ATOM     30  C13 CHE B   07     17.679  68.041   5.608  0.00  0.00    +0.019 A 
ATOM     31  C14 CHE B   07     17.290  67.733   5.489  0.00  0.00    +0.054 A 
ATOM     32  C16 CHE B   07     17.351  67.448   8.531  0.00  0.00    +0.041 A 
BRANCH  31  33
ATOM     33  C15 CHE B   07     15.753  65.963  10.061  0.00  0.00    +0.099 C 
ATOM     34  N3  CHE B   07     15.574  66.224   5.966  0.00  0.00    -0.191 NA
ENDBRANCH  31  33
ENDBRANCH  25  27
ENDBRANCH  24  25
ENDBRANCH   3  24
TORSDOF 6
ENDMDL
MODEL 10
REMARK VINA RESULT:      -9.2      2.720      7.522
REMARK  Name = dock_mp/CHEMBL3/CHEMBL387748.pdb
REMARK  7 active torsions:
REMARK  status: ('A' for Active; 'I' for Inactive)
REMARK    1  A    between atoms: C1_1  and  C2_2
REMARK    2  A    between atoms: C6_6  and  C7_7
REMARK    3  A    between atoms: C8_9  and  C9_10
REMARK    4  A    between atoms: C9_10  and  N2_11
REMARK    5  A    between atoms: N2_11  and  C10_12
REMARK    6  A    between atoms: C14_16  and  C15_17
REMARK    7  A    between atoms: C17_21  and  C18_22
REMARK                            x       y       z     vdW  Elec       q    Type
REMARK                         _______ _______ _______ _____ _____    ______ ____
ROOT
ATOM      1  C7  CHE B   07     21.005  68.646   7.647  0.00  0.00    +0.093 A 
ATOM      2  N1  CHE B   07     21.153  68.211   9.854  0.00  0.00    -0.339 N 
ATOM      3  C8  CHE B   07     21.738  68.052  10.090  0.00  0.00    +0.125 A 
ATOM      4  N4  CHE B   07     21.905  68.402   8.010  0.00  0.00    -0.230 NA
ATOM      5  C17 CHE B   07     19.797  68.381  10.381  0.00  0.00    +0.098 A 
ATOM      6  H7  CHE B   07     21.423  68.138   9.963  0.00  0.00    +0.167 HD
ENDROOT
BRANCH   5   7
ATOM      7  C18 CHE B   07     20.115  68.888   7.288  0.00  0.00    +0.005 A 
ATOM      8  C19 CHE B   07     20.431  69.042   6.348  0.00  0.00    +0.012 A 
ATOM      9  C20 CHE B   07     20.359  69.400   4.164  0.00  0.00    +0.030 A 
ATOM     10  C21 CHE B   07     19.171  69.305   4.730  0.00  0.00    +0.089 A 
ATOM     11  N5  CHE B   07     18.708  69.512   3.455  0.00  0.00    -0.252 NA
ATOM     12  C22 CHE B   07     18.337  69.714   2.219  0.00  0.00    +0.131 A 
ATOM     13  C23 CHE B   07     18.011  69.560   3.155  0.00  0.00    +0.131 A 
ATOM     14  N6  CHE B   07     16.478  68.607   8.954  0.00  0.00    -0.252 NA
ATOM     15  C24 CHE B   07     18.428  69.003   6.563  0.00  0.00    +0.090 A 
ATOM     16  C25 CHE B   07     20.505  69.390   4.227  0.00  0.00    +0.040 A 
ENDBRANCH   5   7
BRANCH   1  22
ATOM     17  C1  CHE B   07     23.348  71.212   3.694  0.00  0.00    +0.065 C 
ATOM     18  C2  CHE B   07     22.531  70.676   8.675  0.00  0.00    +0.039 A 
ATOM     19  C3  CHE B   07     22.574  70.731   8.675  0.00  0.00    +0.023 A 
ATOM     20  C4  CHE B   07     22.127  70.066   7.668  0.00  0.00    +0.004 A 
ATOM     21  C5  CHE B   07     21.884  69.261   2.668  0.00  0.00    +0.030 A 
ATOM     22  C6  CHE B   07     21.779  69.227   3.665  0.00  0.00    +0.090 A 
ATOM     23  N7  CHE B   07     22.115  69.951   6.669  0.00  0.00    -0.250 NA
ENDBRANCH   1  22
BRANCH   3  24
ATOM     24  C9  CHE B   07     25.975  68.485   3.210  0.00  0.00    +0.175 C 
BRANCH  24  25
ATOM     25  N2  CHE B   07     23.945  67.871  11.015  0.00  0.00    -0.337 N 
ATOM     26  H10 CHE B   07     27.240  67.437   3.719  0.00  0.00    +0.147 HD
BRANCH  25  27
ATOM     27  C10 CHE B   07     27.269  67.412   3.731  0.00  0.00    +0.029 A 
ATOM     28  C11 CHE B   07     25.133  67.816   8.260  0.00  0.00    +0.023 A 
ATOM     29  C12 CHE B   07     23.847  67.293  12.055  0.00  0.00    +0.003 A 
ATOM     30  C13 CHE B   07     24.341  66.308  12.254  0.00  0.00    +0.019 A 
ATOM     31  C14 CHE B   07     24.566  65.859  12.345  0.00  0.00    +0.054 A 
ATOM     32  C16 CHE B   07     25.463  66.386   9.472  0.00  0.00    +0.041 A 
BRANCH  31  33
ATOM     33  C15 CHE B   07     27.007  64.848   7.939  0.00  0.00    +0.099 C 
ATOM     34  N3  CHE B   07     25.874  64.005  11.796  0.00  0.00    -0.191 NA
ENDBRANCH  31  33
ENDBRANCH  25  27
ENDBRANCH  24  25
ENDBRANCH   3  24
TORSDOF 6
ENDMDL
