MODEL 1
REMARK VINA RESULT:      -8.4      0.000      0.000
REMARK  Name = dock_mp/CHEMBL3/CHEMBL338713.pdb
REMARK  2 active torsions:
REMARK  status: ('A' for Active; 'I' for Inactive)
REMARK    1  A    between atoms: C4_4  and  C5_5
REMARK    2  A    between atoms: C7_9  and  C8_10
REMARK                            x       y       z     vdW  Elec       q    Type
REMARK                         _______ _______ _______ _____ _____    ______ ____
ROOT
ATOM      1  C5  CHE B   07     22.459  68.072   9.828  0.00  0.00    +0.045 A 
ATOM      2  C6  CHE B   07     17.659  69.000   3.474  0.00  0.00    +0.115 A 
ATOM      3  N1  CHE B   07     20.439  68.081   7.596  0.00  0.00    -0.283 N 
ATOM      4  N2  CHE B   07     21.226  67.210   9.469  0.00  0.00    -0.173 NA
ATOM      5  C7  CHE B   07     16.840  67.734   4.038  0.00  0.00    +0.102 A 
ATOM      6  H5  CHE B   07     17.323  68.481   3.705  0.00  0.00    +0.188 HD
ENDROOT
BRANCH   5   7
ATOM      7  C8  CHE B   07     15.780  67.140   3.560  0.00  0.00    +0.013 A 
ATOM      8  C9  CHE B   07     16.589  67.631   5.322  0.00  0.00    +0.030 A 
ATOM      9  C10 CHE B   07     15.151  66.805   3.947  0.00  0.00    +0.112 A 
ATOM     10  N3  CHE B   07     18.213  68.710  12.230  0.00  0.00    -0.255 NA
ATOM     11  C11 CHE B   07     17.782  68.449  11.366  0.00  0.00    +0.072 A 
ATOM     12  C12 CHE B   07     17.161  68.119  11.748  0.00  0.00    +0.028 A 
ATOM     13  C13 CHE B   07     15.928  67.372   9.117  0.00  0.00    +0.002 A 
ATOM     14  C14 CHE B   07     16.141  67.454   7.857  0.00  0.00    +0.001 A 
ATOM     15  C15 CHE B   07     17.979  68.524  10.115  0.00  0.00    +0.010 A 
ATOM     16  C16 CHE B   07     17.185  68.040   8.344  0.00  0.00    +0.010 A 
ENDBRANCH   5   7
BRANCH   1  20
ATOM     17  C1  CHE B   07     23.228  69.401   9.311  0.00  0.00    +0.020 A 
ATOM     18  C2  CHE B   07     17.532  69.921   2.361  0.00  0.00    +0.004 A 
ATOM     19  C3  CHE B   07     21.063  69.115   7.173  0.00  0.00    +0.028 A 
ATOM     20  C4  CHE B   07     18.312  68.966   4.232  0.00  0.00    +0.075 A 
ATOM     21  N4  CHE B   07     18.966  68.944   4.991  0.00  0.00    -0.255 NA
ATOM     22  C17 CHE B   07     20.472  69.244   6.373  0.00  0.00    +0.111 A 
ENDBRANCH   1  20
TORSDOF 2
ENDMDL
MODEL 2
REMARK VINA RESULT:      -7.7      1.949      6.420
REMARK  Name = dock_mp/CHEMBL3/CHEMBL338713.pdb
REMARK  2 active torsions:
REMARK  status: ('A' for Active; 'I' for Inactive)
REMARK    1  A    between atoms: C4_4  and  C5_5
REMARK    2  A    between atoms: C7_9  and  C8_10
REMARK                            x       y       z     vdW  Elec       q    Type
REMARK                         _______ _______ _______ _____ _____    ______ ____
ROOT
ATOM      1  C5  CHE B   07     17.184  68.737   2.227  0.00  0.00    +0.045 A 
ATOM      2  C6  CHE B   07     20.862  67.881   9.298  0.00  0.00    +0.115 A 
ATOM      3  N1  CHE B   07     18.181  68.505   5.057  0.00  0.00    -0.283 N 
ATOM      4  N2  CHE B   07     16.541  68.887   3.626  0.00  0.00    -0.173 NA
ATOM      5  C7  CHE B   07     19.435  68.214   9.965  0.00  0.00    +0.102 A 
ATOM      6  H5  CHE B   07     20.277  68.018   9.571  0.00  0.00    +0.188 HD
ENDROOT
BRANCH   5   7
ATOM      7  C8  CHE B   07     19.094  68.294  11.223  0.00  0.00    +0.013 A 
ATOM      8  C9  CHE B   07     18.326  67.718   9.468  0.00  0.00    +0.030 A 
ATOM      9  C10 CHE B   07     18.399  68.094  11.588  0.00  0.00    +0.112 A 
ATOM     10  N3  CHE B   07     14.306  65.318   4.027  0.00  0.00    -0.255 NA
ATOM     11  C11 CHE B   07     14.660  65.597   4.920  0.00  0.00    +0.072 A 
ATOM     12  C12 CHE B   07     13.973  65.400   5.280  0.00  0.00    +0.028 A 
ATOM     13  C13 CHE B   07     15.103  66.258   7.924  0.00  0.00    +0.002 A 
ATOM     14  C14 CHE B   07     16.169  66.742   8.443  0.00  0.00    +0.001 A 
ATOM     15  C15 CHE B   07     15.709  66.076   5.448  0.00  0.00    +0.010 A 
ATOM     16  C16 CHE B   07     16.493  66.657   7.194  0.00  0.00    +0.010 A 
ENDBRANCH   5   7
BRANCH   1  20
ATOM     17  C1  CHE B   07     18.668  68.868   1.589  0.00  0.00    +0.020 A 
ATOM     18  C2  CHE B   07     22.221  67.816   9.791  0.00  0.00    +0.004 A 
ATOM     19  C3  CHE B   07     19.339  68.472   4.544  0.00  0.00    +0.028 A 
ATOM     20  C4  CHE B   07     20.495  67.967   8.371  0.00  0.00    +0.075 A 
ATOM     21  N4  CHE B   07     20.139  68.087   7.443  0.00  0.00    -0.255 NA
ATOM     22  C17 CHE B   07     19.814  68.362   5.421  0.00  0.00    +0.111 A 
ENDBRANCH   1  20
TORSDOF 2
ENDMDL
MODEL 3
REMARK VINA RESULT:      -7.5      2.172      7.464
REMARK  Name = dock_mp/CHEMBL3/CHEMBL338713.pdb
REMARK  2 active torsions:
REMARK  status: ('A' for Active; 'I' for Inactive)
REMARK    1  A    between atoms: C4_4  and  C5_5
REMARK    2  A    between atoms: C7_9  and  C8_10
REMARK                            x       y       z     vdW  Elec       q    Type
REMARK                         _______ _______ _______ _____ _____    ______ ____
ROOT
ATOM      1  C5  CHE B   07     15.270  66.742   5.315  0.00  0.00    +0.045 A 
ATOM      2  C6  CHE B   07     21.424  70.109   9.194  0.00  0.00    +0.115 A 
ATOM      3  N1  CHE B   07     17.831  67.814   6.478  0.00  0.00    -0.283 N 
ATOM      4  N2  CHE B   07     16.769  66.612   4.957  0.00  0.00    -0.173 NA
ATOM      5  C7  CHE B   07     22.369  69.396   8.103  0.00  0.00    +0.102 A 
ATOM      6  H5  CHE B   07     21.811  69.817   8.747  0.00  0.00    +0.188 HD
ENDROOT
BRANCH   5   7
ATOM      7  C8  CHE B   07     23.668  69.416   7.976  0.00  0.00    +0.013 A 
ATOM      8  C9  CHE B   07     22.024  69.397   6.837  0.00  0.00    +0.030 A 
ATOM      9  C10 CHE B   07     24.126  69.426   7.307  0.00  0.00    +0.112 A 
ATOM     10  N3  CHE B   07     17.149  69.348   1.568  0.00  0.00    -0.255 NA
ATOM     11  C11 CHE B   07     17.991  69.358   2.109  0.00  0.00    +0.072 A 
ATOM     12  C12 CHE B   07     18.443  69.368   1.449  0.00  0.00    +0.028 A 
ATOM     13  C13 CHE B   07     20.923  69.398   3.136  0.00  0.00    +0.002 A 
ATOM     14  C14 CHE B   07     21.296  69.397   4.362  0.00  0.00    +0.001 A 
ATOM     15  C15 CHE B   07     18.375  69.358   3.317  0.00  0.00    +0.010 A 
ATOM     16  C16 CHE B   07     20.008  69.377   4.473  0.00  0.00    +0.010 A 
ENDBRANCH   5   7
BRANCH   1  20
ATOM     17  C1  CHE B   07     14.348  67.256   6.545  0.00  0.00    +0.020 A 
ATOM     18  C2  CHE B   07     21.630  70.860  10.417  0.00  0.00    +0.004 A 
ATOM     19  C3  CHE B   07     17.094  68.280   7.410  0.00  0.00    +0.028 A 
ATOM     20  C4  CHE B   07     20.594  69.734   8.780  0.00  0.00    +0.075 A 
ATOM     21  N4  CHE B   07     19.760  69.348   8.382  0.00  0.00    -0.255 NA
ATOM     22  C17 CHE B   07     17.854  68.708   7.906  0.00  0.00    +0.111 A 
ENDBRANCH   1  20
TORSDOF 2
ENDMDL
MODEL 4
REMARK VINA RESULT:      -7.4      3.416      5.156
REMARK  Name = dock_mp/CHEMBL3/CHEMBL338713.pdb
REMARK  2 active torsions:
REMARK  status: ('A' for Active; 'I' for Inactive)
REMARK    1  A    between atoms: C4_4  and  C5_5
REMARK    2  A    between atoms: C7_9  and  C8_10
REMARK                            x       y       z     vdW  Elec       q    Type
REMARK                         _______ _______ _______ _____ _____    ______ ____
ROOT
ATOM      1  C5  CHE B   07     21.834  70.405  10.702  0.00  0.00    +0.045 A 
ATOM      2  C6  CHE B   07     24.550  69.497   3.215  0.00  0.00    +0.115 A 
ATOM      3  N1  CHE B   07     22.462  70.196   7.766  0.00  0.00    -0.283 N 
ATOM      4  N2  CHE B   07     21.048  70.670   9.397  0.00  0.00    -0.173 NA
ATOM      5  C7  CHE B   07     23.093  69.987   2.736  0.00  0.00    +0.102 A 
ATOM      6  H5  CHE B   07     23.952  69.698   3.019  0.00  0.00    +0.188 HD
ENDROOT
BRANCH   5   7
ATOM      7  C8  CHE B   07     22.614  70.148   1.532  0.00  0.00    +0.013 A 
ATOM      8  C9  CHE B   07     22.026  69.507   3.333  0.00  0.00    +0.030 A 
ATOM      9  C10 CHE B   07     21.874  69.996   1.241  0.00  0.00    +0.112 A 
ATOM     10  N3  CHE B   07     18.549  66.971   9.078  0.00  0.00    -0.255 NA
ATOM     11  C11 CHE B   07     18.811  67.285   8.165  0.00  0.00    +0.072 A 
ATOM     12  C12 CHE B   07     18.079  67.134   7.877  0.00  0.00    +0.028 A 
ATOM     13  C13 CHE B   07     18.938  68.091   5.166  0.00  0.00    +0.002 A 
ATOM     14  C14 CHE B   07     19.958  68.561   4.552  0.00  0.00    +0.001 A 
ATOM     15  C15 CHE B   07     19.813  67.751   7.543  0.00  0.00    +0.010 A 
ATOM     16  C16 CHE B   07     20.418  68.396   5.749  0.00  0.00    +0.010 A 
ENDBRANCH   5   7
BRANCH   1  20
ATOM     17  C1  CHE B   07     23.246  69.772  11.181  0.00  0.00    +0.020 A 
ATOM     18  C2  CHE B   07     25.754  69.010   2.570  0.00  0.00    +0.004 A 
ATOM     19  C3  CHE B   07     23.594  69.737   8.145  0.00  0.00    +0.028 A 
ATOM     20  C4  CHE B   07     24.304  69.579   4.181  0.00  0.00    +0.075 A 
ATOM     21  N4  CHE B   07     24.063  69.647   5.151  0.00  0.00    -0.255 NA
ATOM     22  C17 CHE B   07     23.948  69.618   7.214  0.00  0.00    +0.111 A 
ENDBRANCH   1  20
TORSDOF 2
ENDMDL
MODEL 5
REMARK VINA RESULT:      -7.3      2.247      6.254
REMARK  Name = dock_mp/CHEMBL3/CHEMBL338713.pdb
REMARK  2 active torsions:
REMARK  status: ('A' for Active; 'I' for Inactive)
REMARK    1  A    between atoms: C4_4  and  C5_5
REMARK    2  A    between atoms: C7_9  and  C8_10
REMARK                            x       y       z     vdW  Elec       q    Type
REMARK                         _______ _______ _______ _____ _____    ______ ____
ROOT
ATOM      1  C5  CHE B   07     16.789  68.544   2.740  0.00  0.00    +0.045 A 
ATOM      2  C6  CHE B   07     22.625  69.495   8.153  0.00  0.00    +0.115 A 
ATOM      3  N1  CHE B   07     18.662  68.959   5.059  0.00  0.00    -0.283 N 
ATOM      4  N2  CHE B   07     16.610  68.831   4.250  0.00  0.00    -0.173 NA
ATOM      5  C7  CHE B   07     21.449  69.713   9.231  0.00  0.00    +0.102 A 
ATOM      6  H5  CHE B   07     22.143  69.585   8.595  0.00  0.00    +0.188 HD
ENDROOT
BRANCH   5   7
ATOM      7  C8  CHE B   07     21.518  69.954  10.512  0.00  0.00    +0.013 A 
ATOM      8  C9  CHE B   07     20.305  69.072   9.190  0.00  0.00    +0.030 A 
ATOM      9  C10 CHE B   07     21.003  69.763  11.107  0.00  0.00    +0.112 A 
ATOM     10  N3  CHE B   07     15.067  65.615   5.705  0.00  0.00    -0.255 NA
ATOM     11  C11 CHE B   07     15.652  66.048   6.392  0.00  0.00    +0.072 A 
ATOM     12  C12 CHE B   07     15.143  65.858   6.979  0.00  0.00    +0.028 A 
ATOM     13  C13 CHE B   07     16.948  67.176   8.981  0.00  0.00    +0.002 A 
ATOM     14  C14 CHE B   07     18.060  67.806   9.058  0.00  0.00    +0.001 A 
ATOM     15  C15 CHE B   07     16.752  66.672   6.484  0.00  0.00    +0.010 A 
ATOM     16  C16 CHE B   07     17.978  67.560   7.791  0.00  0.00    +0.010 A 
ENDBRANCH   5   7
BRANCH   1  20
ATOM     17  C1  CHE B   07     17.960  68.586   1.623  0.00  0.00    +0.020 A 
ATOM     18  C2  CHE B   07     24.069  69.618   8.151  0.00  0.00    +0.004 A 
ATOM     19  C3  CHE B   07     19.591  68.915   4.185  0.00  0.00    +0.028 A 
ATOM     20  C4  CHE B   07     21.971  69.362   7.407  0.00  0.00    +0.075 A 
ATOM     21  N4  CHE B   07     21.324  69.249   6.651  0.00  0.00    -0.255 NA
ATOM     22  C17 CHE B   07     20.333  69.032   4.851  0.00  0.00    +0.111 A 
ENDBRANCH   1  20
TORSDOF 2
ENDMDL
MODEL 6
REMARK VINA RESULT:      -7.1      2.195      7.089
REMARK  Name = dock_mp/CHEMBL3/CHEMBL338713.pdb
REMARK  2 active torsions:
REMARK  status: ('A' for Active; 'I' for Inactive)
REMARK    1  A    between atoms: C4_4  and  C5_5
REMARK    2  A    between atoms: C7_9  and  C8_10
REMARK                            x       y       z     vdW  Elec       q    Type
REMARK                         _______ _______ _______ _____ _____    ______ ____
ROOT
ATOM      1  C5  CHE B   07     17.684  69.665   1.947  0.00  0.00    +0.045 A 
ATOM      2  C6  CHE B   07     16.996  66.657   9.346  0.00  0.00    +0.115 A 
ATOM      3  N1  CHE B   07     17.679  68.863   4.848  0.00  0.00    -0.283 N 
ATOM      4  N2  CHE B   07     18.327  70.228   3.236  0.00  0.00    -0.173 NA
ATOM      5  C7  CHE B   07     17.940  67.873   9.817  0.00  0.00    +0.102 A 
ATOM      6  H5  CHE B   07     17.383  67.156   9.539  0.00  0.00    +0.188 HD
ENDROOT
BRANCH   5   7
ATOM      7  C8  CHE B   07     18.384  68.179  11.006  0.00  0.00    +0.013 A 
ATOM      8  C9  CHE B   07     18.928  68.338   9.088  0.00  0.00    +0.030 A 
ATOM      9  C10 CHE B   07     19.071  68.549  11.227  0.00  0.00    +0.112 A 
ATOM     10  N3  CHE B   07     22.146  69.601   2.797  0.00  0.00    -0.255 NA
ATOM     11  C11 CHE B   07     21.904  69.538   3.766  0.00  0.00    +0.072 A 
ATOM     12  C12 CHE B   07     22.582  69.903   3.984  0.00  0.00    +0.028 A 
ATOM     13  C13 CHE B   07     21.788  69.677   6.868  0.00  0.00    +0.002 A 
ATOM     14  C14 CHE B   07     20.843  69.235   7.611  0.00  0.00    +0.001 A 
ATOM     15  C15 CHE B   07     20.976  69.105   4.514  0.00  0.00    +0.010 A 
ATOM     16  C16 CHE B   07     20.416  68.938   6.427  0.00  0.00    +0.010 A 
ENDBRANCH   5   7
BRANCH   1  20
ATOM     17  C1  CHE B   07     16.333  68.841   1.600  0.00  0.00    +0.020 A 
ATOM     18  C2  CHE B   07     16.120  65.747  10.049  0.00  0.00    +0.004 A 
ATOM     19  C3  CHE B   07     16.729  68.094   4.536  0.00  0.00    +0.028 A 
ATOM     20  C4  CHE B   07     17.021  66.955   8.391  0.00  0.00    +0.075 A 
ATOM     21  N4  CHE B   07     17.008  67.277   7.443  0.00  0.00    -0.255 NA
ATOM     22  C17 CHE B   07     16.633  67.707   5.457  0.00  0.00    +0.111 A 
ENDBRANCH   1  20
TORSDOF 2
ENDMDL
MODEL 7
REMARK VINA RESULT:      -7.1      1.767      2.224
REMARK  Name = dock_mp/CHEMBL3/CHEMBL338713.pdb
REMARK  2 active torsions:
REMARK  status: ('A' for Active; 'I' for Inactive)
REMARK    1  A    between atoms: C4_4  and  C5_5
REMARK    2  A    between atoms: C7_9  and  C8_10
REMARK                            x       y       z     vdW  Elec       q    Type
REMARK                         _______ _______ _______ _____ _____    ______ ____
ROOT
ATOM      1  C5  CHE B   07     22.907  71.100  10.141  0.00  0.00    +0.045 A 
ATOM      2  C6  CHE B   07     17.840  68.043   4.733  0.00  0.00    +0.115 A 
ATOM      3  N1  CHE B   07     20.693  70.060   8.389  0.00  0.00    -0.283 N 
ATOM      4  N2  CHE B   07     21.367  71.024  10.259  0.00  0.00    -0.173 NA
ATOM      5  C7  CHE B   07     16.666  68.439   5.762  0.00  0.00    +0.102 A 
ATOM      6  H5  CHE B   07     17.359  68.205   5.155  0.00  0.00    +0.188 HD
ENDROOT
BRANCH   5   7
ATOM      7  C8  CHE B   07     15.374  68.279   5.663  0.00  0.00    +0.013 A 
ATOM      8  C9  CHE B   07     16.797  68.363   7.065  0.00  0.00    +0.030 A 
ATOM      9  C10 CHE B   07     14.817  68.166   6.240  0.00  0.00    +0.112 A 
ATOM     10  N3  CHE B   07     20.710  68.440  13.083  0.00  0.00    -0.255 NA
ATOM     11  C11 CHE B   07     19.975  68.393  12.406  0.00  0.00    +0.072 A 
ATOM     12  C12 CHE B   07     19.425  68.281  12.977  0.00  0.00    +0.028 A 
ATOM     13  C13 CHE B   07     17.273  68.152  10.891  0.00  0.00    +0.002 A 
ATOM     14  C14 CHE B   07     17.107  68.221   9.623  0.00  0.00    +0.001 A 
ATOM     15  C15 CHE B   07     19.795  68.459  11.153  0.00  0.00    +0.010 A 
ATOM     16  C16 CHE B   07     18.386  68.378   9.736  0.00  0.00    +0.010 A 
ENDBRANCH   5   7
BRANCH   1  20
ATOM     17  C1  CHE B   07     24.095  70.569   9.175  0.00  0.00    +0.020 A 
ATOM     18  C2  CHE B   07     17.929  67.349   3.464  0.00  0.00    +0.004 A 
ATOM     19  C3  CHE B   07     21.629  69.679   7.605  0.00  0.00    +0.028 A 
ATOM     20  C4  CHE B   07     18.549  68.400   5.343  0.00  0.00    +0.075 A 
ATOM     21  N4  CHE B   07     19.266  68.743   5.952  0.00  0.00    -0.255 NA
ATOM     22  C17 CHE B   07     21.008  69.293   6.919  0.00  0.00    +0.111 A 
ENDBRANCH   1  20
TORSDOF 2
ENDMDL
MODEL 8
REMARK VINA RESULT:      -6.8      2.689      5.585
REMARK  Name = dock_mp/CHEMBL3/CHEMBL338713.pdb
REMARK  2 active torsions:
REMARK  status: ('A' for Active; 'I' for Inactive)
REMARK    1  A    between atoms: C4_4  and  C5_5
REMARK    2  A    between atoms: C7_9  and  C8_10
REMARK                            x       y       z     vdW  Elec       q    Type
REMARK                         _______ _______ _______ _____ _____    ______ ____
ROOT
ATOM      1  C5  CHE B   07     22.075  67.994  14.631  0.00  0.00    +0.045 A 
ATOM      2  C6  CHE B   07     16.549  68.508   8.846  0.00  0.00    +0.115 A 
ATOM      3  N1  CHE B   07     20.320  68.087  12.187  0.00  0.00    -0.283 N 
ATOM      4  N2  CHE B   07     22.300  67.772  13.117  0.00  0.00    -0.173 NA
ATOM      5  C7  CHE B   07     17.735  68.137   7.822  0.00  0.00    +0.102 A 
ATOM      6  H5  CHE B   07     17.035  68.356   8.426  0.00  0.00    +0.188 HD
ENDROOT
BRANCH   5   7
ATOM      7  C8  CHE B   07     17.710  67.994   6.524  0.00  0.00    +0.013 A 
ATOM      8  C9  CHE B   07     18.938  68.641   7.963  0.00  0.00    +0.030 A 
ATOM      9  C10 CHE B   07     18.275  68.166   5.970  0.00  0.00    +0.112 A 
ATOM     10  N3  CHE B   07     24.323  71.239  11.937  0.00  0.00    -0.255 NA
ATOM     11  C11 CHE B   07     23.733  70.923  11.193  0.00  0.00    +0.072 A 
ATOM     12  C12 CHE B   07     24.291  71.093  10.646  0.00  0.00    +0.028 A 
ATOM     13  C13 CHE B   07     22.465  70.127   8.470  0.00  0.00    +0.002 A 
ATOM     14  C14 CHE B   07     21.297  69.634   8.294  0.00  0.00    +0.001 A 
ATOM     15  C15 CHE B   07     22.578  70.434  11.004  0.00  0.00    +0.010 A 
ATOM     16  C16 CHE B   07     21.336  69.782   9.578  0.00  0.00    +0.010 A 
ENDBRANCH   5   7
BRANCH   1  20
ATOM     17  C1  CHE B   07     20.900  68.447  15.650  0.00  0.00    +0.020 A 
ATOM     18  C2  CHE B   07     15.141  68.842   8.744  0.00  0.00    +0.004 A 
ATOM     19  C3  CHE B   07     19.386  68.422  12.996  0.00  0.00    +0.028 A 
ATOM     20  C4  CHE B   07     17.163  68.467   9.635  0.00  0.00    +0.075 A 
ATOM     21  N4  CHE B   07     17.772  68.436  10.430  0.00  0.00    -0.255 NA
ATOM     22  C17 CHE B   07     18.684  68.490  12.283  0.00  0.00    +0.111 A 
ENDBRANCH   1  20
TORSDOF 2
ENDMDL
MODEL 9
REMARK VINA RESULT:      -6.7      2.759      5.310
REMARK  Name = dock_mp/CHEMBL3/CHEMBL338713.pdb
REMARK  2 active torsions:
REMARK  status: ('A' for Active; 'I' for Inactive)
REMARK    1  A    between atoms: C4_4  and  C5_5
REMARK    2  A    between atoms: C7_9  and  C8_10
REMARK                            x       y       z     vdW  Elec       q    Type
REMARK                         _______ _______ _______ _____ _____    ______ ____
ROOT
ATOM      1  C5  CHE B   07     23.942  70.765   3.313  0.00  0.00    +0.045 A 
ATOM      2  C6  CHE B   07     16.948  67.750   5.815  0.00  0.00    +0.115 A 
ATOM      3  N1  CHE B   07     21.335  69.930   4.565  0.00  0.00    -0.283 N 
ATOM      4  N2  CHE B   07     23.114  71.242   4.529  0.00  0.00    -0.173 NA
ATOM      5  C7  CHE B   07     17.008  68.855   6.984  0.00  0.00    +0.102 A 
ATOM      6  H5  CHE B   07     16.973  68.203   6.294  0.00  0.00    +0.188 HD
ENDROOT
BRANCH   5   7
ATOM      7  C8  CHE B   07     16.167  69.098   7.953  0.00  0.00    +0.013 A 
ATOM      8  C9  CHE B   07     18.136  69.103   7.606  0.00  0.00    +0.030 A 
ATOM      9  C10 CHE B   07     16.305  69.334   8.716  0.00  0.00    +0.112 A 
ATOM     10  N3  CHE B   07     25.295  69.571   7.856  0.00  0.00    -0.255 NA
ATOM     11  C11 CHE B   07     24.316  69.579   8.062  0.00  0.00    +0.072 A 
ATOM     12  C12 CHE B   07     24.452  69.811   8.816  0.00  0.00    +0.028 A 
ATOM     13  C13 CHE B   07     21.502  69.812   9.360  0.00  0.00    +0.002 A 
ATOM     14  C14 CHE B   07     20.382  69.579   8.785  0.00  0.00    +0.001 A 
ATOM     15  C15 CHE B   07     23.199  69.351   7.506  0.00  0.00    +0.010 A 
ATOM     16  C16 CHE B   07     21.226  69.341   7.834  0.00  0.00    +0.010 A 
ENDBRANCH   5   7
BRANCH   1  20
ATOM     17  C1  CHE B   07     23.653  69.999   1.915  0.00  0.00    +0.020 A 
ATOM     18  C2  CHE B   07     15.917  66.878   5.295  0.00  0.00    +0.004 A 
ATOM     19  C3  CHE B   07     21.174  69.223   3.525  0.00  0.00    +0.028 A 
ATOM     20  C4  CHE B   07     17.819  68.055   5.427  0.00  0.00    +0.075 A 
ATOM     21  N4  CHE B   07     18.671  68.382   5.014  0.00  0.00    -0.255 NA
ATOM     22  C17 CHE B   07     20.299  68.836   3.826  0.00  0.00    +0.111 A 
ENDBRANCH   1  20
TORSDOF 2
ENDMDL
MODEL 10
REMARK VINA RESULT:      -6.7      2.707      7.935
REMARK  Name = dock_mp/CHEMBL3/CHEMBL338713.pdb
REMARK  2 active torsions:
REMARK  status: ('A' for Active; 'I' for Inactive)
REMARK    1  A    between atoms: C4_4  and  C5_5
REMARK    2  A    between atoms: C7_9  and  C8_10
REMARK                            x       y       z     vdW  Elec       q    Type
REMARK                         _______ _______ _______ _____ _____    ______ ____
ROOT
ATOM      1  C5  CHE B   07     17.466  69.591   1.756  0.00  0.00    +0.045 A 
ATOM      2  C6  CHE B   07     19.682  68.464   9.376  0.00  0.00    +0.115 A 
ATOM      3  N1  CHE B   07     18.542  69.520   4.565  0.00  0.00    -0.283 N 
ATOM      4  N2  CHE B   07     18.449  70.464   2.570  0.00  0.00    -0.173 NA
ATOM      5  C7  CHE B   07     20.596  69.777   9.197  0.00  0.00    +0.102 A 
ATOM      6  H5  CHE B   07     20.057  69.003   9.303  0.00  0.00    +0.188 HD
ENDROOT
BRANCH   5   7
ATOM      7  C8  CHE B   07     21.386  70.374  10.049  0.00  0.00    +0.013 A 
ATOM      8  C9  CHE B   07     21.278  69.972   8.093  0.00  0.00    +0.030 A 
ATOM      9  C10 CHE B   07     22.092  70.753   9.928  0.00  0.00    +0.112 A 
ATOM     10  N3  CHE B   07     22.253  69.295   1.013  0.00  0.00    -0.255 NA
ATOM     11  C11 CHE B   07     22.337  69.512   1.986  0.00  0.00    +0.072 A 
ATOM     12  C12 CHE B   07     23.034  69.887   1.867  0.00  0.00    +0.028 A 
ATOM     13  C13 CHE B   07     23.218  70.501   4.797  0.00  0.00    +0.002 A 
ATOM     14  C14 CHE B   07     22.580  70.329   5.894  0.00  0.00    +0.001 A 
ATOM     15  C15 CHE B   07     21.717  69.350   3.080  0.00  0.00    +0.010 A 
ATOM     16  C16 CHE B   07     21.808  69.742   5.039  0.00  0.00    +0.010 A 
ENDBRANCH   5   7
BRANCH   1  20
ATOM     17  C1  CHE B   07     16.568  68.253   1.927  0.00  0.00    +0.020 A 
ATOM     18  C2  CHE B   07     19.411  67.510  10.434  0.00  0.00    +0.004 A 
ATOM     19  C3  CHE B   07     17.826  68.468   4.704  0.00  0.00    +0.028 A 
ATOM     20  C4  CHE B   07     19.346  68.520   8.435  0.00  0.00    +0.075 A 
ATOM     21  N4  CHE B   07     19.006  68.567   7.495  0.00  0.00    -0.255 NA
ATOM     22  C17 CHE B   07     18.094  68.314   5.658  0.00  0.00    +0.111 A 
ENDBRANCH   1  20
TORSDOF 2
ENDMDL
