MODEL 1
REMARK VINA RESULT:     -10.1      0.000      0.000
REMARK  Name = dock_mp/CHEMBL3/CHEMBL340203.pdb
REMARK  2 active torsions:
REMARK  status: ('A' for Active; 'I' for Inactive)
REMARK    1  A    between atoms: C4_5  and  C5_6
REMARK    2  A    between atoms: C7_10  and  C8_11
REMARK                            x       y       z     vdW  Elec       q    Type
REMARK                         _______ _______ _______ _____ _____    ______ ____
ROOT
ATOM      1  C5  CHE B   02     21.606  70.505   9.937  0.00  0.00    +0.118 A 
ATOM      2  N1  CHE B   02     20.229  69.950   7.302  0.00  0.00    -0.172 NA
ATOM      3  N2  CHE B   02     20.667  69.994   9.485  0.00  0.00    -0.284 N 
ATOM      4  C6  CHE B   02     16.145  67.812   4.495  0.00  0.00    +0.114 A 
ATOM      5  C7  CHE B   02     16.378  67.970   4.288  0.00  0.00    +0.029 A 
ATOM      6  H3  CHE B   02     20.653  69.985   9.497  0.00  0.00    +0.188 HD
ENDROOT
BRANCH   5   7
ATOM      7  C8  CHE B   02     17.975  68.548   8.015  0.00  0.00    -0.004 A 
ATOM      8  C9  CHE B   02     15.496  67.375   3.825  0.00  0.00    +0.029 A 
ATOM      9  C10 CHE B   02     17.110  67.970   7.535  0.00  0.00    +0.112 A 
ATOM     10  N3  CHE B   02     15.905  67.075   7.383  0.00  0.00    -0.255 NA
ATOM     11  C11 CHE B   02     17.842  67.969  10.781  0.00  0.00    +0.072 A 
ATOM     12  C12 CHE B   02     16.612  67.052  10.653  0.00  0.00    +0.028 A 
ATOM     13  C13 CHE B   02     17.476  67.402  12.453  0.00  0.00    +0.002 A 
ATOM     14  C14 CHE B   02     15.319  66.530   7.950  0.00  0.00    +0.001 A 
ATOM     15  C15 CHE B   02     19.201  68.781  12.101  0.00  0.00    +0.010 A 
ATOM     16  C16 CHE B   02     16.215  67.364   7.083  0.00  0.00    +0.008 A 
ENDBRANCH   5   7
BRANCH   1  21
ATOM     17  F1  CHE B   02     20.814  68.679   4.395  0.00  0.00    -0.204 F 
ATOM     18  C1  CHE B   02     19.836  69.276   3.868  0.00  0.00    +0.141 A 
ATOM     19  C2  CHE B   02     20.697  69.368   5.699  0.00  0.00    +0.042 A 
ATOM     20  C3  CHE B   02     18.132  70.174   2.634  0.00  0.00    +0.033 A 
ATOM     21  C4  CHE B   02     20.509  70.140   7.053  0.00  0.00    +0.092 A 
ATOM     22  N4  CHE B   02     19.659  70.034   5.214  0.00  0.00    -0.251 NA
ATOM     23  C17 CHE B   02     21.682  69.314   7.442  0.00  0.00    +0.149 A 
ENDBRANCH   1  21
TORSDOF 2
ENDMDL
MODEL 2
REMARK VINA RESULT:      -9.8      2.276      7.244
REMARK  Name = dock_mp/CHEMBL3/CHEMBL340203.pdb
REMARK  2 active torsions:
REMARK  status: ('A' for Active; 'I' for Inactive)
REMARK    1  A    between atoms: C4_5  and  C5_6
REMARK    2  A    between atoms: C7_10  and  C8_11
REMARK                            x       y       z     vdW  Elec       q    Type
REMARK                         _______ _______ _______ _____ _____    ______ ____
ROOT
ATOM      1  C5  CHE B   02     15.403  66.306   7.641  0.00  0.00    +0.118 A 
ATOM      2  N1  CHE B   02     17.479  67.540   9.462  0.00  0.00    -0.172 NA
ATOM      3  N2  CHE B   02     16.307  67.034   7.637  0.00  0.00    -0.284 N 
ATOM      4  C6  CHE B   02     21.731  70.775  10.223  0.00  0.00    +0.114 A 
ATOM      5  C7  CHE B   02     21.628  70.621  10.520  0.00  0.00    +0.029 A 
ATOM      6  H3  CHE B   02     16.313  67.042   7.620  0.00  0.00    +0.188 HD
ENDROOT
BRANCH   5   7
ATOM      7  C8  CHE B   02     18.965  69.133   7.787  0.00  0.00    -0.004 A 
ATOM      8  C9  CHE B   02     22.671  71.131  10.500  0.00  0.00    +0.029 A 
ATOM      9  C10 CHE B   02     19.994  69.638   7.793  0.00  0.00    +0.112 A 
ATOM     10  N3  CHE B   02     21.289  70.240   7.304  0.00  0.00    -0.255 NA
ATOM     11  C11 CHE B   02     18.361  68.655   5.065  0.00  0.00    +0.072 A 
ATOM     12  C12 CHE B   02     19.674  69.264   4.542  0.00  0.00    +0.028 A 
ATOM     13  C13 CHE B   02     18.292  68.501   3.270  0.00  0.00    +0.002 A 
ATOM     14  C14 CHE B   02     21.745  70.407   6.453  0.00  0.00    +0.001 A 
ATOM     15  C15 CHE B   02     16.592  67.751   4.515  0.00  0.00    +0.010 A 
ATOM     16  C16 CHE B   02     21.047  70.151   7.755  0.00  0.00    +0.008 A 
ENDBRANCH   5   7
BRANCH   1  21
ATOM     17  F1  CHE B   02     17.710  69.189  12.227  0.00  0.00    -0.204 F 
ATOM     18  C1  CHE B   02     18.920  68.869  12.387  0.00  0.00    +0.141 A 
ATOM     19  C2  CHE B   02     17.500  68.311  11.056  0.00  0.00    +0.042 A 
ATOM     20  C3  CHE B   02     21.110  68.507  12.941  0.00  0.00    +0.033 A 
ATOM     21  C4  CHE B   02     17.355  67.356   9.818  0.00  0.00    +0.092 A 
ATOM     22  N4  CHE B   02     18.764  67.927  11.161  0.00  0.00    -0.251 NA
ATOM     23  C17 CHE B   02     15.967  67.888   9.838  0.00  0.00    +0.149 A 
ENDBRANCH   1  21
TORSDOF 2
ENDMDL
MODEL 3
REMARK VINA RESULT:      -9.7      2.348      5.713
REMARK  Name = dock_mp/CHEMBL3/CHEMBL340203.pdb
REMARK  2 active torsions:
REMARK  status: ('A' for Active; 'I' for Inactive)
REMARK    1  A    between atoms: C4_5  and  C5_6
REMARK    2  A    between atoms: C7_10  and  C8_11
REMARK                            x       y       z     vdW  Elec       q    Type
REMARK                         _______ _______ _______ _____ _____    ______ ____
ROOT
ATOM      1  C5  CHE B   02     23.187  69.397   7.605  0.00  0.00    +0.118 A 
ATOM      2  N1  CHE B   02     20.278  68.619   7.323  0.00  0.00    -0.172 NA
ATOM      3  N2  CHE B   02     22.353  69.245   6.812  0.00  0.00    -0.284 N 
ATOM      4  C6  CHE B   02     15.932  67.722   4.253  0.00  0.00    +0.114 A 
ATOM      5  C7  CHE B   02     15.866  67.669   4.592  0.00  0.00    +0.029 A 
ATOM      6  H3  CHE B   02     22.357  69.248   6.793  0.00  0.00    +0.188 HD
ENDROOT
BRANCH   5   7
ATOM      7  C8  CHE B   02     19.813  68.761   4.618  0.00  0.00    -0.004 A 
ATOM      8  C9  CHE B   02     15.012  67.587   3.810  0.00  0.00    +0.029 A 
ATOM      9  C10 CHE B   02     18.955  68.671   3.865  0.00  0.00    +0.112 A 
ATOM     10  N3  CHE B   02     18.190  68.715   2.565  0.00  0.00    -0.255 NA
ATOM     11  C11 CHE B   02     22.043  69.673   3.137  0.00  0.00    +0.072 A 
ATOM     12  C12 CHE B   02     21.285  69.726   1.798  0.00  0.00    +0.028 A 
ATOM     13  C13 CHE B   02     23.241  70.246   1.917  0.00  0.00    +0.002 A 
ATOM     14  C14 CHE B   02     18.351  68.945   1.626  0.00  0.00    +0.001 A 
ATOM     15  C15 CHE B   02     23.863  69.998   4.050  0.00  0.00    +0.010 A 
ATOM     16  C16 CHE B   02     18.104  68.593   3.063  0.00  0.00    +0.008 A 
ENDBRANCH   5   7
BRANCH   1  21
ATOM     17  F1  CHE B   02     17.346  69.436   8.346  0.00  0.00    -0.204 F 
ATOM     18  C1  CHE B   02     16.858  68.305   8.075  0.00  0.00    +0.141 A 
ATOM     19  C2  CHE B   02     18.743  69.045   8.057  0.00  0.00    +0.042 A 
ATOM     20  C3  CHE B   02     15.672  66.393   7.661  0.00  0.00    +0.033 A 
ATOM     21  C4  CHE B   02     20.199  68.556   7.731  0.00  0.00    +0.092 A 
ATOM     22  N4  CHE B   02     18.304  67.832   7.755  0.00  0.00    -0.251 NA
ATOM     23  C17 CHE B   02     20.525  69.958   8.103  0.00  0.00    +0.149 A 
ENDBRANCH   1  21
TORSDOF 2
ENDMDL
MODEL 4
REMARK VINA RESULT:      -9.6      2.151      4.951
REMARK  Name = dock_mp/CHEMBL3/CHEMBL340203.pdb
REMARK  2 active torsions:
REMARK  status: ('A' for Active; 'I' for Inactive)
REMARK    1  A    between atoms: C4_5  and  C5_6
REMARK    2  A    between atoms: C7_10  and  C8_11
REMARK                            x       y       z     vdW  Elec       q    Type
REMARK                         _______ _______ _______ _____ _____    ______ ____
ROOT
ATOM      1  C5  CHE B   02     18.985  68.142  12.106  0.00  0.00    +0.118 A 
ATOM      2  N1  CHE B   02     17.507  67.510   9.543  0.00  0.00    -0.172 NA
ATOM      3  N2  CHE B   02     18.962  68.402  10.974  0.00  0.00    -0.284 N 
ATOM      4  C6  CHE B   02     16.788  68.208   4.241  0.00  0.00    +0.114 A 
ATOM      5  C7  CHE B   02     16.560  67.979   4.376  0.00  0.00    +0.029 A 
ATOM      6  H3  CHE B   02     18.975  68.415  10.967  0.00  0.00    +0.188 HD
ENDROOT
BRANCH   5   7
ATOM      7  C8  CHE B   02     18.767  69.057   7.653  0.00  0.00    -0.004 A 
ATOM      8  C9  CHE B   02     16.713  67.934   3.226  0.00  0.00    +0.029 A 
ATOM      9  C10 CHE B   02     18.893  69.004   6.516  0.00  0.00    +0.112 A 
ATOM     10  N3  CHE B   02     19.516  69.109   5.145  0.00  0.00    -0.255 NA
ATOM     11  C11 CHE B   02     21.226  70.029   8.656  0.00  0.00    +0.072 A 
ATOM     12  C12 CHE B   02     21.884  70.146   7.269  0.00  0.00    +0.028 A 
ATOM     13  C13 CHE B   02     22.891  70.654   8.953  0.00  0.00    +0.002 A 
ATOM     14  C14 CHE B   02     20.368  69.381   4.745  0.00  0.00    +0.001 A 
ATOM     15  C15 CHE B   02     21.512  70.307  10.678  0.00  0.00    +0.010 A 
ATOM     16  C16 CHE B   02     19.064  68.965   5.357  0.00  0.00    +0.008 A 
ENDBRANCH   5   7
BRANCH   1  21
ATOM     17  F1  CHE B   02     14.533  67.473   8.311  0.00  0.00    -0.204 F 
ATOM     18  C1  CHE B   02     14.854  66.673   7.389  0.00  0.00    +0.141 A 
ATOM     19  C2  CHE B   02     15.831  67.383   9.015  0.00  0.00    +0.042 A 
ATOM     20  C3  CHE B   02     15.122  65.279   5.595  0.00  0.00    +0.033 A 
ATOM     21  C4  CHE B   02     17.233  67.235   9.705  0.00  0.00    +0.092 A 
ATOM     22  N4  CHE B   02     16.239  66.535   8.081  0.00  0.00    -0.251 NA
ATOM     23  C17 CHE B   02     16.625  68.193  10.666  0.00  0.00    +0.149 A 
ENDBRANCH   1  21
TORSDOF 2
ENDMDL
MODEL 5
REMARK VINA RESULT:      -9.3      1.842      5.697
REMARK  Name = dock_mp/CHEMBL3/CHEMBL340203.pdb
REMARK  2 active torsions:
REMARK  status: ('A' for Active; 'I' for Inactive)
REMARK    1  A    between atoms: C4_5  and  C5_6
REMARK    2  A    between atoms: C7_10  and  C8_11
REMARK                            x       y       z     vdW  Elec       q    Type
REMARK                         _______ _______ _______ _____ _____    ______ ____
ROOT
ATOM      1  C5  CHE B   02     20.337  68.792   4.591  0.00  0.00    +0.118 A 
ATOM      2  N1  CHE B   02     20.311  68.891   7.614  0.00  0.00    -0.172 NA
ATOM      3  N2  CHE B   02     19.621  68.732   5.503  0.00  0.00    -0.284 N 
ATOM      4  C6  CHE B   02     17.634  68.708  12.296  0.00  0.00    +0.114 A 
ATOM      5  C7  CHE B   02     17.978  68.754  12.343  0.00  0.00    +0.029 A 
ATOM      6  H3  CHE B   02     19.601  68.729   5.500  0.00  0.00    +0.188 HD
ENDROOT
BRANCH   5   7
ATOM      7  C8  CHE B   02     17.659  68.576   8.264  0.00  0.00    -0.004 A 
ATOM      8  C9  CHE B   02     17.516  68.205  13.256  0.00  0.00    +0.029 A 
ATOM      9  C10 CHE B   02     17.218  68.049   9.181  0.00  0.00    +0.112 A 
ATOM     10  N3  CHE B   02     16.395  67.105  10.023  0.00  0.00    -0.255 NA
ATOM     11  C11 CHE B   02     16.458  67.344   6.019  0.00  0.00    +0.072 A 
ATOM     12  C12 CHE B   02     15.609  66.370   6.856  0.00  0.00    +0.028 A 
ATOM     13  C13 CHE B   02     15.523  66.362   4.831  0.00  0.00    +0.002 A 
ATOM     14  C14 CHE B   02     15.741  66.387   9.894  0.00  0.00    +0.001 A 
ATOM     15  C15 CHE B   02     16.926  67.943   4.103  0.00  0.00    +0.010 A 
ATOM     16  C16 CHE B   02     16.743  67.485  10.092  0.00  0.00    +0.008 A 
ENDBRANCH   5   7
BRANCH   1  21
ATOM     17  F1  CHE B   02     21.255  70.752  10.067  0.00  0.00    -0.204 F 
ATOM     18  C1  CHE B   02     21.222  69.796  10.891  0.00  0.00    +0.141 A 
ATOM     19  C2  CHE B   02     20.999  69.907   8.881  0.00  0.00    +0.042 A 
ATOM     20  C3  CHE B   02     21.223  68.300  12.621  0.00  0.00    +0.033 A 
ATOM     21  C4  CHE B   02     20.724  68.945   7.670  0.00  0.00    +0.092 A 
ATOM     22  N4  CHE B   02     20.950  68.854   9.684  0.00  0.00    -0.251 NA
ATOM     23  C17 CHE B   02     20.808  70.221   6.912  0.00  0.00    +0.149 A 
ENDBRANCH   1  21
TORSDOF 2
ENDMDL
MODEL 6
REMARK VINA RESULT:      -9.1      1.567      5.425
REMARK  Name = dock_mp/CHEMBL3/CHEMBL340203.pdb
REMARK  2 active torsions:
REMARK  status: ('A' for Active; 'I' for Inactive)
REMARK    1  A    between atoms: C4_5  and  C5_6
REMARK    2  A    between atoms: C7_10  and  C8_11
REMARK                            x       y       z     vdW  Elec       q    Type
REMARK                         _______ _______ _______ _____ _____    ______ ____
ROOT
ATOM      1  C5  CHE B   02     18.745  69.539   3.320  0.00  0.00    +0.118 A 
ATOM      2  N1  CHE B   02     20.111  69.857   6.000  0.00  0.00    -0.172 NA
ATOM      3  N2  CHE B   02     18.653  69.233   4.436  0.00  0.00    -0.284 N 
ATOM      4  C6  CHE B   02     20.353  68.852  11.297  0.00  0.00    +0.114 A 
ATOM      5  C7  CHE B   02     20.618  69.053  11.189  0.00  0.00    +0.029 A 
ATOM      6  H3  CHE B   02     18.638  69.222   4.442  0.00  0.00    +0.188 HD
ENDROOT
BRANCH   5   7
ATOM      7  C8  CHE B   02     18.524  68.423   7.726  0.00  0.00    -0.004 A 
ATOM      8  C9  CHE B   02     20.524  68.752  12.306  0.00  0.00    +0.029 A 
ATOM      9  C10 CHE B   02     18.452  68.139   8.834  0.00  0.00    +0.112 A 
ATOM     10  N3  CHE B   02     17.944  67.532  10.119  0.00  0.00    -0.255 NA
ATOM     11  C11 CHE B   02     16.285  67.225   6.480  0.00  0.00    +0.072 A 
ATOM     12  C12 CHE B   02     15.747  66.596   7.777  0.00  0.00    +0.028 A 
ATOM     13  C13 CHE B   02     14.784  66.343   6.012  0.00  0.00    +0.002 A 
ATOM     14  C14 CHE B   02     17.196  66.978  10.424  0.00  0.00    +0.001 A 
ATOM     15  C15 CHE B   02     15.955  67.442   4.456  0.00  0.00    +0.010 A 
ATOM     16  C16 CHE B   02     18.342  67.827   9.958  0.00  0.00    +0.008 A 
ENDBRANCH   5   7
BRANCH   1  21
ATOM     17  F1  CHE B   02     23.072  69.620   7.312  0.00  0.00    -0.204 F 
ATOM     18  C1  CHE B   02     22.736  70.308   8.315  0.00  0.00    +0.141 A 
ATOM     19  C2  CHE B   02     21.803  69.830   6.582  0.00  0.00    +0.042 A 
ATOM     20  C3  CHE B   02     22.435  71.477  10.258  0.00  0.00    +0.033 A 
ATOM     21  C4  CHE B   02     20.429  70.098   5.871  0.00  0.00    +0.092 A 
ATOM     22  N4  CHE B   02     21.380  70.566   7.600  0.00  0.00    -0.251 NA
ATOM     23  C17 CHE B   02     21.050  69.250   4.819  0.00  0.00    +0.149 A 
ENDBRANCH   1  21
TORSDOF 2
ENDMDL
MODEL 7
REMARK VINA RESULT:      -8.9      2.259      7.234
REMARK  Name = dock_mp/CHEMBL3/CHEMBL340203.pdb
REMARK  2 active torsions:
REMARK  status: ('A' for Active; 'I' for Inactive)
REMARK    1  A    between atoms: C4_5  and  C5_6
REMARK    2  A    between atoms: C7_10  and  C8_11
REMARK                            x       y       z     vdW  Elec       q    Type
REMARK                         _______ _______ _______ _____ _____    ______ ____
ROOT
ATOM      1  C5  CHE B   02     14.836  67.160   5.296  0.00  0.00    +0.118 A 
ATOM      2  N1  CHE B   02     16.199  67.628   7.956  0.00  0.00    -0.172 NA
ATOM      3  N2  CHE B   02     15.868  67.416   5.763  0.00  0.00    -0.284 N 
ATOM      4  C6  CHE B   02     20.618  68.781  10.830  0.00  0.00    +0.114 A 
ATOM      5  C7  CHE B   02     20.338  68.732  11.034  0.00  0.00    +0.029 A 
ATOM      6  H3  CHE B   02     15.884  67.419   5.752  0.00  0.00    +0.188 HD
ENDROOT
BRANCH   5   7
ATOM      7  C8  CHE B   02     18.809  68.158   7.278  0.00  0.00    -0.004 A 
ATOM      8  C9  CHE B   02     21.206  69.334  11.515  0.00  0.00    +0.029 A 
ATOM      9  C10 CHE B   02     19.660  68.743   7.776  0.00  0.00    +0.112 A 
ATOM     10  N3  CHE B   02     20.852  69.651   7.952  0.00  0.00    -0.255 NA
ATOM     11  C11 CHE B   02     18.982  68.754   4.518  0.00  0.00    +0.072 A 
ATOM     12  C12 CHE B   02     20.198  69.684   4.672  0.00  0.00    +0.028 A 
ATOM     13  C13 CHE B   02     19.368  69.335   2.856  0.00  0.00    +0.002 A 
ATOM     14  C14 CHE B   02     21.441  70.205   7.398  0.00  0.00    +0.001 A 
ATOM     15  C15 CHE B   02     17.653  67.936   3.171  0.00  0.00    +0.010 A 
ATOM     16  C16 CHE B   02     20.540  69.356   8.246  0.00  0.00    +0.008 A 
ENDBRANCH   5   7
BRANCH   1  21
ATOM     17  F1  CHE B   02     16.497  66.243  10.870  0.00  0.00    -0.204 F 
ATOM     18  C1  CHE B   02     16.868  67.324  11.404  0.00  0.00    +0.141 A 
ATOM     19  C2  CHE B   02     16.178  66.852   9.560  0.00  0.00    +0.042 A 
ATOM     20  C3  CHE B   02     17.599  69.096  12.653  0.00  0.00    +0.033 A 
ATOM     21  C4  CHE B   02     15.863  67.569   8.200  0.00  0.00    +0.092 A 
ATOM     22  N4  CHE B   02     16.552  68.024  10.053  0.00  0.00    -0.251 NA
ATOM     23  C17 CHE B   02     15.482  66.188   7.803  0.00  0.00    +0.149 A 
ENDBRANCH   1  21
TORSDOF 2
ENDMDL
MODEL 8
REMARK VINA RESULT:      -8.5      2.101      5.954
REMARK  Name = dock_mp/CHEMBL3/CHEMBL340203.pdb
REMARK  2 active torsions:
REMARK  status: ('A' for Active; 'I' for Inactive)
REMARK    1  A    between atoms: C4_5  and  C5_6
REMARK    2  A    between atoms: C7_10  and  C8_11
REMARK                            x       y       z     vdW  Elec       q    Type
REMARK                         _______ _______ _______ _____ _____    ______ ____
ROOT
ATOM      1  C5  CHE B   02     16.118  65.735   9.642  0.00  0.00    +0.118 A 
ATOM      2  N1  CHE B   02     18.652  67.304   9.124  0.00  0.00    -0.172 NA
ATOM      3  N2  CHE B   02     16.656  66.363   8.827  0.00  0.00    -0.284 N 
ATOM      4  C6  CHE B   02     21.731  70.312   5.869  0.00  0.00    +0.114 A 
ATOM      5  C7  CHE B   02     21.881  70.261   6.182  0.00  0.00    +0.029 A 
ATOM      6  H3  CHE B   02     16.647  66.366   8.809  0.00  0.00    +0.188 HD
ENDROOT
BRANCH   5   7
ATOM      7  C8  CHE B   02     18.348  68.221   6.551  0.00  0.00    -0.004 A 
ATOM      8  C9  CHE B   02     22.507  70.727   5.322  0.00  0.00    +0.029 A 
ATOM      9  C10 CHE B   02     18.984  68.690   5.720  0.00  0.00    +0.112 A 
ATOM     10  N3  CHE B   02     19.438  69.128   4.350  0.00  0.00    -0.255 NA
ATOM     11  C11 CHE B   02     16.087  67.118   5.259  0.00  0.00    +0.072 A 
ATOM     12  C12 CHE B   02     16.529  67.554   3.851  0.00  0.00    +0.028 A 
ATOM     13  C13 CHE B   02     14.797  66.541   4.140  0.00  0.00    +0.002 A 
ATOM     14  C14 CHE B   02     19.127  69.075   3.422  0.00  0.00    +0.001 A 
ATOM     15  C15 CHE B   02     14.619  66.149   6.334  0.00  0.00    +0.010 A 
ATOM     16  C16 CHE B   02     19.603  69.155   4.842  0.00  0.00    +0.008 A 
ENDBRANCH   5   7
BRANCH   1  21
ATOM     17  F1  CHE B   02     20.463  69.617  10.494  0.00  0.00    -0.204 F 
ATOM     18  C1  CHE B   02     21.473  69.310   9.802  0.00  0.00    +0.141 A 
ATOM     19  C2  CHE B   02     19.641  68.476  10.034  0.00  0.00    +0.042 A 
ATOM     20  C3  CHE B   02     23.448  69.031   8.683  0.00  0.00    +0.033 A 
ATOM     21  C4  CHE B   02     18.832  67.242   9.499  0.00  0.00    +0.092 A 
ATOM     22  N4  CHE B   02     20.661  68.092   9.279  0.00  0.00    -0.251 NA
ATOM     23  C17 CHE B   02     17.789  67.806  10.396  0.00  0.00    +0.149 A 
ENDBRANCH   1  21
TORSDOF 2
ENDMDL
