MODEL 1
REMARK VINA RESULT:     -10.7      0.000      0.000
REMARK  Name = dock_mp/CHEMBL3/CHEMBL377711.pdb
REMARK  7 active torsions:
REMARK  status: ('A' for Active; 'I' for Inactive)
REMARK    1  A    between atoms: C1_1  and  C2_2
REMARK    2  A    between atoms: C6_6  and  C7_7
REMARK    3  A    between atoms: C12_14  and  C13_15
REMARK    4  A    between atoms: N4_21  and  C18_22
REMARK    5  A    between atoms: C18_22  and  C19_23
REMARK    6  A    between atoms: C19_23  and  C20_24
REMARK    7  A    between atoms: C20_24  and  N5_25
REMARK                            x       y       z     vdW  Elec       q    Type
REMARK                         _______ _______ _______ _____ _____    ______ ____
ROOT
ATOM      1  C13 CHE B   07     16.162  66.992   3.896  0.00  0.00    -0.012 A 
ATOM      2  C14 CHE B   07     17.652  67.633   7.555  0.00  0.00    +0.011 A 
ATOM      3  C15 CHE B   07     17.249  67.686   4.386  0.00  0.00    +0.030 A 
ATOM      4  C16 CHE B   07     18.146  68.355   3.852  0.00  0.00    +0.089 A 
ATOM      5  N3  CHE B   07     19.827  69.375   5.125  0.00  0.00    -0.236 NA
ATOM      6  C17 CHE B   07     22.491  70.775   9.223  0.00  0.00    +0.200 A 
ATOM      7  N4  CHE B   07     22.420  70.604  10.402  0.00  0.00    -0.330 N 
ATOM      8  C26 CHE B   07     21.458  69.886  10.974  0.00  0.00    +0.069 A 
ATOM      9  C27 CHE B   07     20.662  69.291  11.447  0.00  0.00    +0.036 A 
ENDROOT
BRANCH   1  17
ATOM     10  C7  CHE B   07     17.717  67.292  10.933  0.00  0.00    +0.119 A 
ATOM     11  N1  CHE B   07     15.747  66.091   8.712  0.00  0.00    -0.169 NA
ATOM     12  N2  CHE B   07     17.198  66.724  12.390  0.00  0.00    -0.267 N 
ATOM     13  C8  CHE B   07     16.944  66.375  13.686  0.00  0.00    +0.144 C 
ATOM     14  C9  CHE B   07     13.682  64.951   5.408  0.00  0.00    +0.029 C 
ATOM     15  C10 CHE B   07     15.021  65.913   5.732  0.00  0.00    +0.057 C 
ATOM     16  C11 CHE B   07     16.299  66.545   8.375  0.00  0.00    +0.048 A 
ATOM     17  C12 CHE B   07     18.483  67.782  11.606  0.00  0.00    +0.032 A 
BRANCH  10  23
ATOM     18  C1  CHE B   07     17.318  69.362  12.658  0.00  0.00    +0.065 C 
ATOM     19  C2  CHE B   07     16.797  68.318   9.862  0.00  0.00    +0.039 A 
ATOM     20  C3  CHE B   07     16.995  68.622  10.799  0.00  0.00    +0.023 A 
ATOM     21  C4  CHE B   07     15.748  66.910   5.170  0.00  0.00    +0.004 A 
ATOM     22  C5  CHE B   07     16.951  67.366   8.991  0.00  0.00    +0.030 A 
ATOM     23  C6  CHE B   07     16.504  66.854   7.109  0.00  0.00    +0.092 A 
ATOM     24  N6  CHE B   07     15.584  66.545   4.240  0.00  0.00    -0.250 NA
ENDBRANCH  10  23
ENDBRANCH   1  17
BRANCH   7  25
ATOM     25  C18 CHE B   07     22.854  70.928  10.144  0.00  0.00    +0.121 C 
BRANCH  25  26
ATOM     26  C19 CHE B   07     26.327  72.747  18.245  0.00  0.00    +0.003 C 
BRANCH  26  27
ATOM     27  C20 CHE B   07     23.404  71.046   9.883  0.00  0.00    -0.077 C 
BRANCH  27  28
ATOM     28  N5  CHE B   07     27.442  71.416  16.908  0.00  0.00    +0.380 N 
ATOM     29  C21 CHE B   07     25.803  71.210  11.120  0.00  0.00    -0.079 C 
ATOM     30  C22 CHE B   07     26.916  71.267  10.704  0.00  0.00    -0.019 C 
ATOM     31  C23 CHE B   07     28.971  71.434  13.136  0.00  0.00    -0.004 C 
ATOM     32  C24 CHE B   07     27.826  71.335  11.431  0.00  0.00    -0.019 C 
ATOM     33  C25 CHE B   07     27.607  71.384  14.713  0.00  0.00    -0.079 C 
ATOM     34  H22 CHE B   07     25.043  71.150  10.337  0.00  0.00    -0.082 HD
ENDBRANCH  27  28
ENDBRANCH  26  27
ENDBRANCH  25  26
ENDBRANCH   7  25
TORSDOF 6
ENDMDL
MODEL 2
REMARK VINA RESULT:     -10.5      3.913      8.149
REMARK  Name = dock_mp/CHEMBL3/CHEMBL377711.pdb
REMARK  7 active torsions:
REMARK  status: ('A' for Active; 'I' for Inactive)
REMARK    1  A    between atoms: C1_1  and  C2_2
REMARK    2  A    between atoms: C6_6  and  C7_7
REMARK    3  A    between atoms: C12_14  and  C13_15
REMARK    4  A    between atoms: N4_21  and  C18_22
REMARK    5  A    between atoms: C18_22  and  C19_23
REMARK    6  A    between atoms: C19_23  and  C20_24
REMARK    7  A    between atoms: C20_24  and  N5_25
REMARK                            x       y       z     vdW  Elec       q    Type
REMARK                         _______ _______ _______ _____ _____    ______ ____
ROOT
ATOM      1  C13 CHE B   07     21.153  69.332  12.265  0.00  0.00    -0.012 A 
ATOM      2  C14 CHE B   07     19.372  68.467   8.786  0.00  0.00    +0.011 A 
ATOM      3  C15 CHE B   07     21.422  69.628  10.945  0.00  0.00    +0.030 A 
ATOM      4  C16 CHE B   07     22.319  70.270  10.380  0.00  0.00    +0.089 A 
ATOM      5  N3  CHE B   07     22.366  70.509   8.050  0.00  0.00    -0.236 NA
ATOM      6  C17 CHE B   07     20.940  70.003   3.196  0.00  0.00    +0.200 A 
ATOM      7  N4  CHE B   07     20.052  69.470   2.606  0.00  0.00    -0.330 N 
ATOM      8  C26 CHE B   07     19.090  68.780   3.212  0.00  0.00    +0.069 A 
ATOM      9  C27 CHE B   07     18.294  68.210   3.714  0.00  0.00    +0.036 A 
ENDROOT
BRANCH   1  17
ATOM     10  C7  CHE B   07     17.020  66.983   6.841  0.00  0.00    +0.119 A 
ATOM     11  N1  CHE B   07     17.585  66.828   9.989  0.00  0.00    -0.169 NA
ATOM     12  N2  CHE B   07     15.743  65.987   6.534  0.00  0.00    -0.267 N 
ATOM     13  C8  CHE B   07     14.712  65.227   6.060  0.00  0.00    +0.144 C 
ATOM     14  C9  CHE B   07     18.858  67.123  13.832  0.00  0.00    +0.029 C 
ATOM     15  C10 CHE B   07     19.301  67.782  12.352  0.00  0.00    +0.057 C 
ATOM     16  C11 CHE B   07     18.096  67.320   9.640  0.00  0.00    +0.048 A 
ATOM     17  C12 CHE B   07     16.933  67.132   5.722  0.00  0.00    +0.032 A 
BRANCH  10  23
ATOM     18  C1  CHE B   07     15.213  68.413   5.388  0.00  0.00    +0.065 C 
ATOM     19  C2  CHE B   07     17.059  68.447   7.789  0.00  0.00    +0.039 A 
ATOM     20  C3  CHE B   07     16.462  68.389   6.984  0.00  0.00    +0.023 A 
ATOM     21  C4  CHE B   07     19.997  68.854  11.827  0.00  0.00    +0.004 A 
ATOM     22  C5  CHE B   07     17.928  67.819   8.525  0.00  0.00    +0.030 A 
ATOM     23  C6  CHE B   07     19.082  68.036  10.145  0.00  0.00    +0.092 A 
ATOM     24  N6  CHE B   07     20.620  68.847  12.626  0.00  0.00    -0.250 NA
ENDBRANCH  10  23
ENDBRANCH   1  17
BRANCH   7  25
ATOM     25  C18 CHE B   07     20.486  69.781   2.332  0.00  0.00    +0.121 C 
BRANCH  25  26
ATOM     26  C19 CHE B   07     26.707  64.848   6.571  0.00  0.00    +0.003 C 
BRANCH  26  27
ATOM     27  C20 CHE B   07     20.817  69.748   1.809  0.00  0.00    -0.077 C 
BRANCH  27  28
ATOM     28  N5  CHE B   07     27.379  66.509   5.309  0.00  0.00    +0.380 N 
ATOM     29  C21 CHE B   07     23.481  69.301   1.671  0.00  0.00    -0.079 C 
ATOM     30  C22 CHE B   07     24.301  69.592   0.859  0.00  0.00    -0.019 C 
ATOM     31  C23 CHE B   07     27.159  68.519   1.777  0.00  0.00    -0.004 C 
ATOM     32  C24 CHE B   07     25.419  69.293   1.001  0.00  0.00    -0.019 C 
ATOM     33  C25 CHE B   07     26.603  67.626   3.578  0.00  0.00    -0.079 C 
ATOM     34  H22 CHE B   07     22.473  69.639   1.419  0.00  0.00    -0.082 HD
ENDBRANCH  27  28
ENDBRANCH  26  27
ENDBRANCH  25  26
ENDBRANCH   7  25
TORSDOF 6
ENDMDL
MODEL 3
REMARK VINA RESULT:     -10.3      2.347      3.368
REMARK  Name = dock_mp/CHEMBL3/CHEMBL377711.pdb
REMARK  7 active torsions:
REMARK  status: ('A' for Active; 'I' for Inactive)
REMARK    1  A    between atoms: C1_1  and  C2_2
REMARK    2  A    between atoms: C6_6  and  C7_7
REMARK    3  A    between atoms: C12_14  and  C13_15
REMARK    4  A    between atoms: N4_21  and  C18_22
REMARK    5  A    between atoms: C18_22  and  C19_23
REMARK    6  A    between atoms: C19_23  and  C20_24
REMARK    7  A    between atoms: C20_24  and  N5_25
REMARK                            x       y       z     vdW  Elec       q    Type
REMARK                         _______ _______ _______ _____ _____    ______ ____
ROOT
ATOM      1  C13 CHE B   07     16.050  67.220   3.941  0.00  0.00    -0.012 A 
ATOM      2  C14 CHE B   07     17.613  67.799   7.581  0.00  0.00    +0.011 A 
ATOM      3  C15 CHE B   07     17.162  67.882   4.418  0.00  0.00    +0.030 A 
ATOM      4  C16 CHE B   07     18.068  68.532   3.875  0.00  0.00    +0.089 A 
ATOM      5  N3  CHE B   07     19.795  69.500   5.127  0.00  0.00    -0.236 NA
ATOM      6  C17 CHE B   07     22.557  70.804   9.192  0.00  0.00    +0.200 A 
ATOM      7  N4  CHE B   07     22.500  70.628  10.370  0.00  0.00    -0.330 N 
ATOM      8  C26 CHE B   07     21.529  69.931  10.953  0.00  0.00    +0.069 A 
ATOM      9  C27 CHE B   07     20.726  69.355  11.434  0.00  0.00    +0.036 A 
ENDROOT
BRANCH   1  17
ATOM     10  C7  CHE B   07     17.760  67.387  10.947  0.00  0.00    +0.119 A 
ATOM     11  N1  CHE B   07     15.812  66.139   8.732  0.00  0.00    -0.169 NA
ATOM     12  N2  CHE B   07     17.313  66.741  12.396  0.00  0.00    -0.267 N 
ATOM     13  C8  CHE B   07     17.113  66.335  13.684  0.00  0.00    +0.144 C 
ATOM     14  C9  CHE B   07     13.739  64.981   5.440  0.00  0.00    +0.029 C 
ATOM     15  C10 CHE B   07     15.024  66.013   5.766  0.00  0.00    +0.057 C 
ATOM     16  C11 CHE B   07     16.327  66.637   8.399  0.00  0.00    +0.048 A 
ATOM     17  C12 CHE B   07     18.511  67.902  11.619  0.00  0.00    +0.032 A 
BRANCH  10  23
ATOM     18  C1  CHE B   07     17.400  69.439  12.702  0.00  0.00    +0.065 C 
ATOM     19  C2  CHE B   07     16.827  68.430   9.904  0.00  0.00    +0.039 A 
ATOM     20  C3  CHE B   07     17.042  68.722  10.840  0.00  0.00    +0.023 A 
ATOM     21  C4  CHE B   07     15.692  67.081   5.214  0.00  0.00    +0.004 A 
ATOM     22  C5  CHE B   07     16.962  67.487   9.020  0.00  0.00    +0.030 A 
ATOM     23  C6  CHE B   07     16.481  66.999   7.140  0.00  0.00    +0.092 A 
ATOM     24  N6  CHE B   07     15.511  66.727   4.283  0.00  0.00    -0.250 NA
ENDBRANCH  10  23
ENDBRANCH   1  17
BRANCH   7  25
ATOM     25  C18 CHE B   07     22.939  70.942  10.107  0.00  0.00    +0.121 C 
BRANCH  25  26
ATOM     26  C19 CHE B   07     27.171  63.288   7.987  0.00  0.00    +0.003 C 
BRANCH  26  27
ATOM     27  C20 CHE B   07     23.484  71.205  10.243  0.00  0.00    -0.077 C 
BRANCH  27  28
ATOM     28  N5  CHE B   07     28.318  64.794   9.090  0.00  0.00    +0.380 N 
ATOM     29  C21 CHE B   07     26.014  70.269  10.067  0.00  0.00    -0.079 C 
ATOM     30  C22 CHE B   07     27.074  70.803  10.157  0.00  0.00    -0.019 C 
ATOM     31  C23 CHE B   07     29.401  68.658   9.768  0.00  0.00    -0.004 C 
ATOM     32  C24 CHE B   07     28.063  70.196  10.046  0.00  0.00    -0.019 C 
ATOM     33  C25 CHE B   07     28.227  66.960   9.473  0.00  0.00    -0.079 C 
ATOM     34  H22 CHE B   07     25.168  70.948  10.190  0.00  0.00    -0.082 HD
ENDBRANCH  27  28
ENDBRANCH  26  27
ENDBRANCH  25  26
ENDBRANCH   7  25
TORSDOF 6
ENDMDL
MODEL 4
REMARK VINA RESULT:      -9.7      1.765      2.166
REMARK  Name = dock_mp/CHEMBL3/CHEMBL377711.pdb
REMARK  7 active torsions:
REMARK  status: ('A' for Active; 'I' for Inactive)
REMARK    1  A    between atoms: C1_1  and  C2_2
REMARK    2  A    between atoms: C6_6  and  C7_7
REMARK    3  A    between atoms: C12_14  and  C13_15
REMARK    4  A    between atoms: N4_21  and  C18_22
REMARK    5  A    between atoms: C18_22  and  C19_23
REMARK    6  A    between atoms: C19_23  and  C20_24
REMARK    7  A    between atoms: C20_24  and  N5_25
REMARK                            x       y       z     vdW  Elec       q    Type
REMARK                         _______ _______ _______ _____ _____    ______ ____
ROOT
ATOM      1  C13 CHE B   07     16.110  67.206   4.009  0.00  0.00    -0.012 A 
ATOM      2  C14 CHE B   07     17.704  67.716   7.645  0.00  0.00    +0.011 A 
ATOM      3  C15 CHE B   07     17.290  67.744   4.477  0.00  0.00    +0.030 A 
ATOM      4  C16 CHE B   07     18.273  68.260   3.923  0.00  0.00    +0.089 A 
ATOM      5  N3  CHE B   07     20.095  69.053   5.162  0.00  0.00    -0.236 NA
ATOM      6  C17 CHE B   07     22.965  70.151   9.213  0.00  0.00    +0.200 A 
ATOM      7  N4  CHE B   07     22.878  70.024  10.395  0.00  0.00    -0.330 N 
ATOM      8  C26 CHE B   07     21.825  69.471  10.990  0.00  0.00    +0.069 A 
ATOM      9  C27 CHE B   07     20.954  69.013  11.481  0.00  0.00    +0.036 A 
ENDROOT
BRANCH   1  17
ATOM     10  C7  CHE B   07     17.805  67.361  11.018  0.00  0.00    +0.119 A 
ATOM     11  N1  CHE B   07     15.808  66.183   8.809  0.00  0.00    -0.169 NA
ATOM     12  N2  CHE B   07     17.324  66.751  12.472  0.00  0.00    -0.267 N 
ATOM     13  C8  CHE B   07     17.102  66.367  13.763  0.00  0.00    +0.144 C 
ATOM     14  C9  CHE B   07     13.692  65.091   5.521  0.00  0.00    +0.029 C 
ATOM     15  C10 CHE B   07     15.023  66.066   5.842  0.00  0.00    +0.057 C 
ATOM     16  C11 CHE B   07     16.346  66.654   8.473  0.00  0.00    +0.048 A 
ATOM     17  C12 CHE B   07     18.577  67.847  11.688  0.00  0.00    +0.032 A 
BRANCH  10  23
ATOM     18  C1  CHE B   07     17.582  69.464  12.735  0.00  0.00    +0.065 C 
ATOM     19  C2  CHE B   07     16.953  68.448   9.952  0.00  0.00    +0.039 A 
ATOM     20  C3  CHE B   07     17.183  68.741  10.884  0.00  0.00    +0.023 A 
ATOM     21  C4  CHE B   07     15.749  67.099   5.279  0.00  0.00    +0.004 A 
ATOM     22  C5  CHE B   07     17.025  67.483   9.085  0.00  0.00    +0.030 A 
ATOM     23  C6  CHE B   07     16.520  66.996   7.211  0.00  0.00    +0.092 A 
ATOM     24  N6  CHE B   07     15.547  66.743   4.353  0.00  0.00    -0.250 NA
ENDBRANCH  10  23
ENDBRANCH   1  17
BRANCH   7  25
ATOM     25  C18 CHE B   07     23.354  70.273  10.127  0.00  0.00    +0.121 C 
BRANCH  25  26
ATOM     26  C19 CHE B   07     28.818  64.686  14.591  0.00  0.00    +0.003 C 
BRANCH  26  27
ATOM     27  C20 CHE B   07     23.518  70.736  10.506  0.00  0.00    -0.077 C 
BRANCH  27  28
ATOM     28  N5  CHE B   07     29.544  66.705  14.145  0.00  0.00    +0.380 N 
ATOM     29  C21 CHE B   07     25.412  70.735  12.436  0.00  0.00    -0.079 C 
ATOM     30  C22 CHE B   07     25.723  71.542  13.253  0.00  0.00    -0.019 C 
ATOM     31  C23 CHE B   07     28.134  70.423  15.015  0.00  0.00    -0.004 C 
ATOM     32  C24 CHE B   07     26.589  71.332  14.005  0.00  0.00    -0.019 C 
ATOM     33  C25 CHE B   07     28.365  68.564  14.098  0.00  0.00    -0.079 C 
ATOM     34  H22 CHE B   07     24.588  71.054  11.794  0.00  0.00    -0.082 HD
ENDBRANCH  27  28
ENDBRANCH  26  27
ENDBRANCH  25  26
ENDBRANCH   7  25
TORSDOF 6
ENDMDL
MODEL 5
REMARK VINA RESULT:      -9.5      5.708      8.472
REMARK  Name = dock_mp/CHEMBL3/CHEMBL377711.pdb
REMARK  7 active torsions:
REMARK  status: ('A' for Active; 'I' for Inactive)
REMARK    1  A    between atoms: C1_1  and  C2_2
REMARK    2  A    between atoms: C6_6  and  C7_7
REMARK    3  A    between atoms: C12_14  and  C13_15
REMARK    4  A    between atoms: N4_21  and  C18_22
REMARK    5  A    between atoms: C18_22  and  C19_23
REMARK    6  A    between atoms: C19_23  and  C20_24
REMARK    7  A    between atoms: C20_24  and  N5_25
REMARK                            x       y       z     vdW  Elec       q    Type
REMARK                         _______ _______ _______ _____ _____    ______ ____
ROOT
ATOM      1  C13 CHE B   07     15.090  66.260   6.006  0.00  0.00    -0.012 A 
ATOM      2  C14 CHE B   07     18.626  68.133   6.127  0.00  0.00    +0.011 A 
ATOM      3  C15 CHE B   07     15.980  66.702   5.049  0.00  0.00    +0.030 A 
ATOM      4  C16 CHE B   07     15.988  66.669   3.809  0.00  0.00    +0.089 A 
ATOM      5  N3  CHE B   07     17.763  67.571   2.576  0.00  0.00    -0.236 NA
ATOM      6  C17 CHE B   07     22.190  69.882   1.621  0.00  0.00    +0.200 A 
ATOM      7  N4  CHE B   07     23.070  70.367   2.263  0.00  0.00    -0.330 N 
ATOM      8  C26 CHE B   07     23.062  70.402   3.593  0.00  0.00    +0.069 A 
ATOM      9  C27 CHE B   07     23.055  70.431   4.692  0.00  0.00    +0.036 A 
ENDROOT
BRANCH   1  17
ATOM     10  C7  CHE B   07     21.204  69.704   7.676  0.00  0.00    +0.119 A 
ATOM     11  N1  CHE B   07     18.395  68.627   8.773  0.00  0.00    -0.169 NA
ATOM     12  N2  CHE B   07     21.970  70.423   8.946  0.00  0.00    -0.267 N 
ATOM     13  C8  CHE B   07     22.774  71.060   9.847  0.00  0.00    +0.144 C 
ATOM     14  C9  CHE B   07     14.731  67.019   9.455  0.00  0.00    +0.029 C 
ATOM     15  C10 CHE B   07     15.766  67.169   8.140  0.00  0.00    +0.057 C 
ATOM     16  C11 CHE B   07     18.475  68.458   8.005  0.00  0.00    +0.048 A 
ATOM     17  C12 CHE B   07     22.156  70.029   7.158  0.00  0.00    +0.032 A 
BRANCH  10  23
ATOM     18  C1  CHE B   07     23.702  68.652   7.955  0.00  0.00    +0.065 C 
ATOM     19  C2  CHE B   07     20.765  68.019   7.567  0.00  0.00    +0.039 A 
ATOM     20  C3  CHE B   07     21.727  68.277   7.696  0.00  0.00    +0.023 A 
ATOM     21  C4  CHE B   07     16.001  66.605   6.925  0.00  0.00    +0.004 A 
ATOM     22  C5  CHE B   07     19.549  68.455   7.429  0.00  0.00    +0.030 A 
ATOM     23  C6  CHE B   07     17.663  67.835   7.173  0.00  0.00    +0.092 A 
ATOM     24  N6  CHE B   07     15.016  66.413   6.795  0.00  0.00    -0.250 NA
ENDBRANCH  10  23
ENDBRANCH   1  17
BRANCH   7  25
ATOM     25  C18 CHE B   07     23.074  70.351   1.663  0.00  0.00    +0.121 C 
BRANCH  25  26
ATOM     26  C19 CHE B   07     31.485  67.151   1.789  0.00  0.00    +0.003 C 
BRANCH  26  27
ATOM     27  C20 CHE B   07     23.153  70.535   1.077  0.00  0.00    -0.077 C 
BRANCH  27  28
ATOM     28  N5  CHE B   07     31.072  68.873   0.499  0.00  0.00    +0.380 N 
ATOM     29  C21 CHE B   07     25.364  70.516  -0.480  0.00  0.00    -0.079 C 
ATOM     30  C22 CHE B   07     25.550  70.833  -1.612  0.00  0.00    -0.019 C 
ATOM     31  C23 CHE B   07     28.609  70.364  -2.378  0.00  0.00    -0.004 C 
ATOM     32  C24 CHE B   07     26.607  70.741  -2.095  0.00  0.00    -0.019 C 
ATOM     33  C25 CHE B   07     29.288  69.623  -0.550  0.00  0.00    -0.079 C 
ATOM     34  H22 CHE B   07     24.332  70.651  -0.149  0.00  0.00    -0.082 HD
ENDBRANCH  27  28
ENDBRANCH  26  27
ENDBRANCH  25  26
ENDBRANCH   7  25
TORSDOF 6
ENDMDL
MODEL 6
REMARK VINA RESULT:      -9.3      4.295      5.734
REMARK  Name = dock_mp/CHEMBL3/CHEMBL377711.pdb
REMARK  7 active torsions:
REMARK  status: ('A' for Active; 'I' for Inactive)
REMARK    1  A    between atoms: C1_1  and  C2_2
REMARK    2  A    between atoms: C6_6  and  C7_7
REMARK    3  A    between atoms: C12_14  and  C13_15
REMARK    4  A    between atoms: N4_21  and  C18_22
REMARK    5  A    between atoms: C18_22  and  C19_23
REMARK    6  A    between atoms: C19_23  and  C20_24
REMARK    7  A    between atoms: C20_24  and  N5_25
REMARK                            x       y       z     vdW  Elec       q    Type
REMARK                         _______ _______ _______ _____ _____    ______ ____
ROOT
ATOM      1  C13 CHE B   07     16.420  68.156   5.471  0.00  0.00    -0.012 A 
ATOM      2  C14 CHE B   07     19.878  68.650   7.425  0.00  0.00    +0.011 A 
ATOM      3  C15 CHE B   07     17.730  68.340   5.080  0.00  0.00    +0.030 A 
ATOM      4  C16 CHE B   07     18.289  68.416   3.976  0.00  0.00    +0.089 A 
ATOM      5  N3  CHE B   07     20.603  68.742   3.800  0.00  0.00    -0.236 NA
ATOM      6  C17 CHE B   07     25.425  69.428   5.257  0.00  0.00    +0.200 A 
ATOM      7  N4  CHE B   07     26.013  69.515   6.291  0.00  0.00    -0.330 N 
ATOM      8  C26 CHE B   07     25.413  69.433   7.475  0.00  0.00    +0.069 A 
ATOM      9  C27 CHE B   07     24.917  69.366   8.454  0.00  0.00    +0.036 A 
ENDROOT
BRANCH   1  17
ATOM     10  C7  CHE B   07     21.833  68.795  10.195  0.00  0.00    +0.119 A 
ATOM     11  N1  CHE B   07     18.747  68.036   9.801  0.00  0.00    -0.169 NA
ATOM     12  N2  CHE B   07     22.171  68.610  11.798  0.00  0.00    -0.267 N 
ATOM     13  C8  CHE B   07     22.664  68.524  13.068  0.00  0.00    +0.144 C 
ATOM     14  C9  CHE B   07     14.963  67.232   8.573  0.00  0.00    +0.029 C 
ATOM     15  C10 CHE B   07     16.392  67.739   7.851  0.00  0.00    +0.057 C 
ATOM     16  C11 CHE B   07     19.072  68.241   9.111  0.00  0.00    +0.048 A 
ATOM     17  C12 CHE B   07     22.926  69.089  10.190  0.00  0.00    +0.032 A 
BRANCH  10  23
ATOM     18  C1  CHE B   07     23.108  71.083  10.946  0.00  0.00    +0.065 C 
ATOM     19  C2  CHE B   07     20.787  69.928   9.379  0.00  0.00    +0.039 A 
ATOM     20  C3  CHE B   07     21.569  70.265   9.910  0.00  0.00    +0.023 A 
ATOM     21  C4  CHE B   07     16.853  68.370   6.695  0.00  0.00    +0.004 A 
ATOM     22  C5  CHE B   07     20.133  68.876   8.986  0.00  0.00    +0.030 A 
ATOM     23  C6  CHE B   07     18.549  68.309   7.901  0.00  0.00    +0.092 A 
ATOM     24  N6  CHE B   07     16.083  67.966   6.177  0.00  0.00    -0.250 NA
ENDBRANCH  10  23
ENDBRANCH   1  17
BRANCH   7  25
ATOM     25  C18 CHE B   07     26.284  69.551   5.757  0.00  0.00    +0.121 C 
BRANCH  25  26
ATOM     26  C19 CHE B   07     30.509  77.045   8.401  0.00  0.00    +0.003 C 
BRANCH  26  27
ATOM     27  C20 CHE B   07     26.811  69.343   5.506  0.00  0.00    -0.077 C 
BRANCH  27  28
ATOM     28  N5  CHE B   07     29.102  77.029   6.721  0.00  0.00    +0.380 N 
ATOM     29  C21 CHE B   07     28.553  71.320   4.896  0.00  0.00    -0.079 C 
ATOM     30  C22 CHE B   07     29.490  71.364   4.163  0.00  0.00    -0.019 C 
ATOM     31  C23 CHE B   07     30.804  74.267   4.264  0.00  0.00    -0.004 C 
ATOM     32  C24 CHE B   07     30.117  72.340   4.049  0.00  0.00    -0.019 C 
ATOM     33  C25 CHE B   07     29.517  75.154   5.645  0.00  0.00    -0.079 C 
ATOM     34  H22 CHE B   07     28.052  70.349   4.911  0.00  0.00    -0.082 HD
ENDBRANCH  27  28
ENDBRANCH  26  27
ENDBRANCH  25  26
ENDBRANCH   7  25
TORSDOF 6
ENDMDL
MODEL 7
REMARK VINA RESULT:      -9.0      5.888      7.655
REMARK  Name = dock_mp/CHEMBL3/CHEMBL377711.pdb
REMARK  7 active torsions:
REMARK  status: ('A' for Active; 'I' for Inactive)
REMARK    1  A    between atoms: C1_1  and  C2_2
REMARK    2  A    between atoms: C6_6  and  C7_7
REMARK    3  A    between atoms: C12_14  and  C13_15
REMARK    4  A    between atoms: N4_21  and  C18_22
REMARK    5  A    between atoms: C18_22  and  C19_23
REMARK    6  A    between atoms: C19_23  and  C20_24
REMARK    7  A    between atoms: C20_24  and  N5_25
REMARK                            x       y       z     vdW  Elec       q    Type
REMARK                         _______ _______ _______ _____ _____    ______ ____
ROOT
ATOM      1  C13 CHE B   07     15.367  67.817   4.345  0.00  0.00    -0.012 A 
ATOM      2  C14 CHE B   07     19.101  68.472   5.629  0.00  0.00    +0.011 A 
ATOM      3  C15 CHE B   07     16.535  68.232   3.740  0.00  0.00    +0.030 A 
ATOM      4  C16 CHE B   07     16.829  68.549   2.578  0.00  0.00    +0.089 A 
ATOM      5  N3  CHE B   07     19.003  69.207   2.006  0.00  0.00    -0.236 NA
ATOM      6  C17 CHE B   07     23.934  70.309   2.573  0.00  0.00    +0.200 A 
ATOM      7  N4  CHE B   07     24.722  70.316   3.468  0.00  0.00    -0.330 N 
ATOM      8  C26 CHE B   07     24.406  69.977   4.715  0.00  0.00    +0.069 A 
ATOM      9  C27 CHE B   07     24.145  69.696   5.746  0.00  0.00    +0.036 A 
ENDROOT
BRANCH   1  17
ATOM     10  C7  CHE B   07     21.589  68.459   7.937  0.00  0.00    +0.119 A 
ATOM     11  N1  CHE B   07     18.583  67.360   8.037  0.00  0.00    -0.169 NA
ATOM     12  N2  CHE B   07     22.284  68.083   9.383  0.00  0.00    -0.267 N 
ATOM     13  C8  CHE B   07     23.049  67.874  10.494  0.00  0.00    +0.144 C 
ATOM     14  C9  CHE B   07     14.721  66.249   7.464  0.00  0.00    +0.029 C 
ATOM     15  C10 CHE B   07     15.900  67.047   6.573  0.00  0.00    +0.057 C 
ATOM     16  C11 CHE B   07     18.726  67.709   7.343  0.00  0.00    +0.048 A 
ATOM     17  C12 CHE B   07     22.619  68.895   7.766  0.00  0.00    +0.032 A 
BRANCH  10  23
ATOM     18  C1  CHE B   07     22.702  70.730   8.950  0.00  0.00    +0.065 C 
ATOM     19  C2  CHE B   07     20.245  69.534   7.643  0.00  0.00    +0.039 A 
ATOM     20  C3  CHE B   07     21.081  69.886   8.074  0.00  0.00    +0.023 A 
ATOM     21  C4  CHE B   07     16.024  67.896   5.498  0.00  0.00    +0.004 A 
ATOM     22  C5  CHE B   07     19.657  68.488   7.145  0.00  0.00    +0.030 A 
ATOM     23  C6  CHE B   07     17.949  67.887   6.292  0.00  0.00    +0.092 A 
ATOM     24  N6  CHE B   07     15.211  67.479   5.061  0.00  0.00    -0.250 NA
ENDBRANCH  10  23
ENDBRANCH   1  17
BRANCH   7  25
ATOM     25  C18 CHE B   07     24.865  70.469   2.906  0.00  0.00    +0.121 C 
BRANCH  25  26
ATOM     26  C19 CHE B   07     30.890  63.791   2.602  0.00  0.00    +0.003 C 
BRANCH  26  27
ATOM     27  C20 CHE B   07     24.796  70.434   2.291  0.00  0.00    -0.077 C 
BRANCH  27  28
ATOM     28  N5  CHE B   07     31.483  65.882   2.884  0.00  0.00    +0.380 N 
ATOM     29  C21 CHE B   07     27.155  69.706   1.188  0.00  0.00    -0.079 C 
ATOM     30  C22 CHE B   07     27.706  70.034   0.186  0.00  0.00    -0.019 C 
ATOM     31  C23 CHE B   07     30.481  68.486  -0.078  0.00  0.00    -0.004 C 
ATOM     32  C24 CHE B   07     28.742  69.584  -0.105  0.00  0.00    -0.019 C 
ATOM     33  C25 CHE B   07     30.392  67.366   1.679  0.00  0.00    -0.079 C 
ATOM     34  H22 CHE B   07     26.193  70.200   1.343  0.00  0.00    -0.082 HD
ENDBRANCH  27  28
ENDBRANCH  26  27
ENDBRANCH  25  26
ENDBRANCH   7  25
TORSDOF 6
ENDMDL
MODEL 8
REMARK VINA RESULT:      -8.9      2.887      9.543
REMARK  Name = dock_mp/CHEMBL3/CHEMBL377711.pdb
REMARK  7 active torsions:
REMARK  status: ('A' for Active; 'I' for Inactive)
REMARK    1  A    between atoms: C1_1  and  C2_2
REMARK    2  A    between atoms: C6_6  and  C7_7
REMARK    3  A    between atoms: C12_14  and  C13_15
REMARK    4  A    between atoms: N4_21  and  C18_22
REMARK    5  A    between atoms: C18_22  and  C19_23
REMARK    6  A    between atoms: C19_23  and  C20_24
REMARK    7  A    between atoms: C20_24  and  N5_25
REMARK                            x       y       z     vdW  Elec       q    Type
REMARK                         _______ _______ _______ _____ _____    ______ ____
ROOT
ATOM      1  C13 CHE B   07     17.840  66.860  14.621  0.00  0.00    -0.012 A 
ATOM      2  C14 CHE B   07     21.033  67.907  12.446  0.00  0.00    +0.011 A 
ATOM      3  C15 CHE B   07     18.017  67.360  13.348  0.00  0.00    +0.030 A 
ATOM      4  C16 CHE B   07     17.237  67.659  12.432  0.00  0.00    +0.089 A 
ATOM      5  N3  CHE B   07     18.018  68.495  10.388  0.00  0.00    -0.236 NA
ATOM      6  C17 CHE B   07     21.312  70.071   6.851  0.00  0.00    +0.200 A 
ATOM      7  N4  CHE B   07     22.496  70.184   6.759  0.00  0.00    -0.330 N 
ATOM      8  C26 CHE B   07     23.333  69.864   7.742  0.00  0.00    +0.069 A 
ATOM      9  C27 CHE B   07     24.025  69.598   8.554  0.00  0.00    +0.036 A 
ENDROOT
BRANCH   1  17
ATOM     10  C7  CHE B   07     24.341  68.472  11.945  0.00  0.00    +0.119 A 
ATOM     11  N1  CHE B   07     22.684  67.705  14.575  0.00  0.00    -0.169 NA
ATOM     12  N2  CHE B   07     25.912  68.659  12.406  0.00  0.00    -0.267 N 
ATOM     13  C8  CHE B   07     27.253  68.861  12.566  0.00  0.00    +0.144 C 
ATOM     14  C9  CHE B   07     19.988  66.715  17.444  0.00  0.00    +0.029 C 
ATOM     15  C10 CHE B   07     19.950  67.010  15.790  0.00  0.00    +0.057 C 
ATOM     16  C11 CHE B   07     22.206  67.737  13.947  0.00  0.00    +0.048 A 
ATOM     17  C12 CHE B   07     24.799  68.734  10.943  0.00  0.00    +0.032 A 
BRANCH  10  23
ATOM     18  C1  CHE B   07     25.811  67.006  10.180  0.00  0.00    +0.065 C 
ATOM     19  C2  CHE B   07     23.331  67.049  11.919  0.00  0.00    +0.039 A 
ATOM     20  C3  CHE B   07     24.164  67.081  11.359  0.00  0.00    +0.023 A 
ATOM     21  C4  CHE B   07     19.153  66.773  14.671  0.00  0.00    +0.004 A 
ATOM     22  C5  CHE B   07     22.585  67.695  12.765  0.00  0.00    +0.030 A 
ATOM     23  C6  CHE B   07     20.907  67.532  13.843  0.00  0.00    +0.092 A 
ATOM     24  N6  CHE B   07     18.329  66.806  15.258  0.00  0.00    -0.250 NA
ENDBRANCH  10  23
ENDBRANCH   1  17
BRANCH   7  25
ATOM     25  C18 CHE B   07     22.118  70.329   6.316  0.00  0.00    +0.121 C 
BRANCH  25  26
ATOM     26  C19 CHE B   07     15.612  65.540  10.281  0.00  0.00    +0.003 C 
BRANCH  26  27
ATOM     27  C20 CHE B   07     21.773  70.373   5.803  0.00  0.00    -0.077 C 
BRANCH  27  28
ATOM     28  N5  CHE B   07     15.093  66.598   8.433  0.00  0.00    +0.380 N 
ATOM     29  C21 CHE B   07     19.421  69.202   5.161  0.00  0.00    -0.079 C 
ATOM     30  C22 CHE B   07     18.875  69.020   4.119  0.00  0.00    -0.019 C 
ATOM     31  C23 CHE B   07     16.105  67.516   4.600  0.00  0.00    -0.004 C 
ATOM     32  C24 CHE B   07     17.842  68.482   4.070  0.00  0.00    -0.019 C 
ATOM     33  C25 CHE B   07     16.187  67.350   6.677  0.00  0.00    -0.079 C 
ATOM     34  H22 CHE B   07     20.381  69.716   5.071  0.00  0.00    -0.082 HD
ENDBRANCH  27  28
ENDBRANCH  26  27
ENDBRANCH  25  26
ENDBRANCH   7  25
TORSDOF 6
ENDMDL
MODEL 9
REMARK VINA RESULT:      -8.8      3.455      4.901
REMARK  Name = dock_mp/CHEMBL3/CHEMBL377711.pdb
REMARK  7 active torsions:
REMARK  status: ('A' for Active; 'I' for Inactive)
REMARK    1  A    between atoms: C1_1  and  C2_2
REMARK    2  A    between atoms: C6_6  and  C7_7
REMARK    3  A    between atoms: C12_14  and  C13_15
REMARK    4  A    between atoms: N4_21  and  C18_22
REMARK    5  A    between atoms: C18_22  and  C19_23
REMARK    6  A    between atoms: C19_23  and  C20_24
REMARK    7  A    between atoms: C20_24  and  N5_25
REMARK                            x       y       z     vdW  Elec       q    Type
REMARK                         _______ _______ _______ _____ _____    ______ ____
ROOT
ATOM      1  C13 CHE B   07     19.938  69.362   1.885  0.00  0.00    -0.012 A 
ATOM      2  C14 CHE B   07     21.394  69.407   5.613  0.00  0.00    +0.011 A 
ATOM      3  C15 CHE B   07     21.183  69.595   2.431  0.00  0.00    +0.030 A 
ATOM      4  C16 CHE B   07     22.290  69.874   1.945  0.00  0.00    +0.089 A 
ATOM      5  N3  CHE B   07     24.173  70.188   3.302  0.00  0.00    -0.236 NA
ATOM      6  C17 CHE B   07     26.981  70.494   7.529  0.00  0.00    +0.200 A 
ATOM      7  N4  CHE B   07     26.799  70.367   8.701  0.00  0.00    -0.330 N 
ATOM      8  C26 CHE B   07     25.612  70.068   9.222  0.00  0.00    +0.069 A 
ATOM      9  C27 CHE B   07     24.631  69.821   9.652  0.00  0.00    +0.036 A 
ENDROOT
BRANCH   1  17
ATOM     10  C7  CHE B   07     21.186  69.041   8.982  0.00  0.00    +0.119 A 
ATOM     11  N1  CHE B   07     19.037  68.575   6.655  0.00  0.00    -0.169 NA
ATOM     12  N2  CHE B   07     20.446  68.652  10.402  0.00  0.00    -0.267 N 
ATOM     13  C8  CHE B   07     20.035  68.386  11.677  0.00  0.00    +0.144 C 
ATOM     14  C9  CHE B   07     16.866  68.213   3.244  0.00  0.00    +0.029 C 
ATOM     15  C10 CHE B   07     18.428  68.684   3.646  0.00  0.00    +0.057 C 
ATOM     16  C11 CHE B   07     19.720  68.830   6.352  0.00  0.00    +0.048 A 
ATOM     17  C12 CHE B   07     22.038  69.248   9.698  0.00  0.00    +0.032 A 
BRANCH  10  23
ATOM     18  C1  CHE B   07     21.814  71.118  10.629  0.00  0.00    +0.065 C 
ATOM     19  C2  CHE B   07     20.951  70.334   7.834  0.00  0.00    +0.039 A 
ATOM     20  C3  CHE B   07     21.237  70.546   8.772  0.00  0.00    +0.023 A 
ATOM     21  C4  CHE B   07     19.524  69.402   3.122  0.00  0.00    +0.004 A 
ATOM     22  C5  CHE B   07     20.640  69.389   6.997  0.00  0.00    +0.030 A 
ATOM     23  C6  CHE B   07     20.071  69.074   5.104  0.00  0.00    +0.092 A 
ATOM     24  N6  CHE B   07     19.236  69.121   2.193  0.00  0.00    -0.250 NA
ENDBRANCH  10  23
ENDBRANCH   1  17
BRANCH   7  25
ATOM     25  C18 CHE B   07     27.334  70.502   8.466  0.00  0.00    +0.121 C 
BRANCH  25  26
ATOM     26  C19 CHE B   07     28.725  76.482  15.047  0.00  0.00    +0.003 C 
BRANCH  26  27
ATOM     27  C20 CHE B   07     27.835  70.715   8.168  0.00  0.00    -0.077 C 
BRANCH  27  28
ATOM     28  N5  CHE B   07     30.386  76.102  13.669  0.00  0.00    +0.380 N 
ATOM     29  C21 CHE B   07     28.906  73.154   8.635  0.00  0.00    -0.079 C 
ATOM     30  C22 CHE B   07     29.254  74.028   7.907  0.00  0.00    -0.019 C 
ATOM     31  C23 CHE B   07     30.379  76.473   9.617  0.00  0.00    -0.004 C 
ATOM     32  C24 CHE B   07     29.699  75.020   8.330  0.00  0.00    -0.019 C 
ATOM     33  C25 CHE B   07     30.115  75.678  11.526  0.00  0.00    -0.079 C 
ATOM     34  H22 CHE B   07     28.508  72.280   8.114  0.00  0.00    -0.082 HD
ENDBRANCH  27  28
ENDBRANCH  26  27
ENDBRANCH  25  26
ENDBRANCH   7  25
TORSDOF 6
ENDMDL
MODEL 10
REMARK VINA RESULT:      -8.8      5.718      8.517
REMARK  Name = dock_mp/CHEMBL3/CHEMBL377711.pdb
REMARK  7 active torsions:
REMARK  status: ('A' for Active; 'I' for Inactive)
REMARK    1  A    between atoms: C1_1  and  C2_2
REMARK    2  A    between atoms: C6_6  and  C7_7
REMARK    3  A    between atoms: C12_14  and  C13_15
REMARK    4  A    between atoms: N4_21  and  C18_22
REMARK    5  A    between atoms: C18_22  and  C19_23
REMARK    6  A    between atoms: C19_23  and  C20_24
REMARK    7  A    between atoms: C20_24  and  N5_25
REMARK                            x       y       z     vdW  Elec       q    Type
REMARK                         _______ _______ _______ _____ _____    ______ ____
ROOT
ATOM      1  C13 CHE B   07     17.097  68.852   6.982  0.00  0.00    -0.012 A 
ATOM      2  C14 CHE B   07     21.081  68.693   7.331  0.00  0.00    +0.011 A 
ATOM      3  C15 CHE B   07     18.142  68.818   6.083  0.00  0.00    +0.030 A 
ATOM      4  C16 CHE B   07     18.204  68.826   4.845  0.00  0.00    +0.089 A 
ATOM      5  N3  CHE B   07     20.261  68.753   3.726  0.00  0.00    -0.236 NA
ATOM      6  C17 CHE B   07     25.297  68.560   3.055  0.00  0.00    +0.200 A 
ATOM      7  N4  CHE B   07     26.262  68.517   3.754  0.00  0.00    -0.330 N 
ATOM      8  C26 CHE B   07     26.196  68.509   5.083  0.00  0.00    +0.069 A 
ATOM      9  C27 CHE B   07     26.141  68.502   6.181  0.00  0.00    +0.036 A 
ENDROOT
BRANCH   1  17
ATOM     10  C7  CHE B   07     23.993  68.395   9.046  0.00  0.00    +0.119 A 
ATOM     11  N1  CHE B   07     20.938  68.117   9.963  0.00  0.00    -0.169 NA
ATOM     12  N2  CHE B   07     24.922  68.060  10.365  0.00  0.00    -0.267 N 
ATOM     13  C8  CHE B   07     25.870  67.822  11.318  0.00  0.00    +0.144 C 
ATOM     14  C9  CHE B   07     16.907  67.951  10.411  0.00  0.00    +0.029 C 
ATOM     15  C10 CHE B   07     17.978  68.292   9.162  0.00  0.00    +0.057 C 
ATOM     16  C11 CHE B   07     20.980  68.318   9.200  0.00  0.00    +0.048 A 
ATOM     17  C12 CHE B   07     25.020  68.528   8.588  0.00  0.00    +0.032 A 
BRANCH  10  23
ATOM     18  C1  CHE B   07     25.815  70.417   9.160  0.00  0.00    +0.065 C 
ATOM     19  C2  CHE B   07     22.903  69.716   8.709  0.00  0.00    +0.039 A 
ATOM     20  C3  CHE B   07     23.878  69.900   8.865  0.00  0.00    +0.023 A 
ATOM     21  C4  CHE B   07     18.021  68.922   7.912  0.00  0.00    +0.004 A 
ATOM     22  C5  CHE B   07     21.985  68.799   8.641  0.00  0.00    +0.030 A 
ATOM     23  C6  CHE B   07     20.028  68.539   8.315  0.00  0.00    +0.092 A 
ATOM     24  N6  CHE B   07     17.052  68.668   7.764  0.00  0.00    -0.250 NA
ENDBRANCH  10  23
ENDBRANCH   1  17
BRANCH   7  25
ATOM     25  C18 CHE B   07     26.292  68.520   3.155  0.00  0.00    +0.121 C 
BRANCH  25  26
ATOM     26  C19 CHE B   07     24.924  77.416   3.129  0.00  0.00    +0.003 C 
BRANCH  26  27
ATOM     27  C20 CHE B   07     26.724  68.586   2.715  0.00  0.00    -0.077 C 
BRANCH  27  28
ATOM     28  N5  CHE B   07     25.118  76.391   1.202  0.00  0.00    +0.380 N 
ATOM     29  C21 CHE B   07     26.564  70.558   0.872  0.00  0.00    -0.079 C 
ATOM     30  C22 CHE B   07     26.758  70.574  -0.302  0.00  0.00    -0.019 C 
ATOM     31  C23 CHE B   07     26.249  73.509  -1.440  0.00  0.00    -0.004 C 
ATOM     32  C24 CHE B   07     26.627  71.556  -0.918  0.00  0.00    -0.019 C 
ATOM     33  C25 CHE B   07     25.724  74.457   0.342  0.00  0.00    -0.079 C 
ATOM     34  H22 CHE B   07     26.721  69.579   1.330  0.00  0.00    -0.082 HD
ENDBRANCH  27  28
ENDBRANCH  26  27
ENDBRANCH  25  26
ENDBRANCH   7  25
TORSDOF 6
ENDMDL
