MODEL 1
REMARK VINA RESULT:      -8.8      0.000      0.000
REMARK  Name = dock_mp/CHEMBL3/CHEMBL338196.pdb
REMARK  3 active torsions:
REMARK  status: ('A' for Active; 'I' for Inactive)
REMARK    1  A    between atoms: C3_3  and  C4_4
REMARK    2  A    between atoms: C5_7  and  C6_8
REMARK    3  A    between atoms: C11_14  and  C12_15
REMARK                            x       y       z     vdW  Elec       q    Type
REMARK                         _______ _______ _______ _____ _____    ______ ____
ROOT
ATOM      1  C4  CHE B   01     16.578  66.912   6.131  0.00  0.00    +0.047 A 
ATOM      2  N1  CHE B   01     21.060  68.761   7.742  0.00  0.00    -0.280 N 
ATOM      3  N2  CHE B   01     19.549  68.857   6.184  0.00  0.00    -0.171 NA
ATOM      4  C5  CHE B   01     23.688  69.686   8.910  0.00  0.00    +0.119 A 
ATOM      5  C11 CHE B   01     16.625  67.050   5.980  0.00  0.00    +0.033 A 
ATOM      6  H6  CHE B   01     17.692  67.927   5.748  0.00  0.00    +0.189 HD
ENDROOT
BRANCH   5   7
ATOM      7  C12 CHE B   01     20.666  67.589   9.023  0.00  0.00    -0.003 A 
ATOM      8  C13 CHE B   01     22.406  67.690  10.009  0.00  0.00    +0.029 A 
ATOM      9  C14 CHE B   01     20.210  68.013   9.881  0.00  0.00    +0.112 A 
ATOM     10  N4  CHE B   01     19.862  68.338  10.536  0.00  0.00    -0.255 NA
ATOM     11  C15 CHE B   01     22.564  68.403  11.841  0.00  0.00    +0.072 A 
ATOM     12  C16 CHE B   01     16.885  68.528   9.750  0.00  0.00    +0.028 A 
ATOM     13  C17 CHE B   01     15.137  68.435   8.780  0.00  0.00    +0.002 A 
ATOM     14  C18 CHE B   01     14.647  68.030   7.571  0.00  0.00    +0.001 A 
ATOM     15  C19 CHE B   01     16.791  67.755   7.796  0.00  0.00    +0.010 A 
ATOM     16  C20 CHE B   01     17.638  67.828   8.334  0.00  0.00    +0.008 A 
ENDBRANCH   5   7
BRANCH   4  17
ATOM     17  C6  CHE B   01     18.752  68.784   5.538  0.00  0.00    +0.091 A 
ATOM     18  C7  CHE B   01     18.729  68.750   5.595  0.00  0.00    +0.030 A 
ATOM     19  C8  CHE B   01     22.423  69.961   6.813  0.00  0.00    +0.004 A 
ATOM     20  C9  CHE B   01     20.958  69.932   5.229  0.00  0.00    +0.020 A 
ATOM     21  C10 CHE B   01     19.250  69.536   4.266  0.00  0.00    +0.111 A 
ATOM     22  N3  CHE B   01     19.872  69.384   5.339  0.00  0.00    -0.253 NA
ENDBRANCH   4  17
BRANCH   1  25
ATOM     23  C1  CHE B   01     13.125  64.605   5.085  0.00  0.00    +0.010 C 
ATOM     24  C2  CHE B   01     12.147  63.688   5.196  0.00  0.00    +0.010 C 
ATOM     25  C3  CHE B   01     16.324  66.155   6.959  0.00  0.00    +0.038 C 
ENDBRANCH   1  25
TORSDOF 3
ENDMDL
MODEL 2
REMARK VINA RESULT:      -8.7      1.428      3.808
REMARK  Name = dock_mp/CHEMBL3/CHEMBL338196.pdb
REMARK  3 active torsions:
REMARK  status: ('A' for Active; 'I' for Inactive)
REMARK    1  A    between atoms: C3_3  and  C4_4
REMARK    2  A    between atoms: C5_7  and  C6_8
REMARK    3  A    between atoms: C11_14  and  C12_15
REMARK                            x       y       z     vdW  Elec       q    Type
REMARK                         _______ _______ _______ _____ _____    ______ ____
ROOT
ATOM      1  C4  CHE B   01     15.876  66.310   7.587  0.00  0.00    +0.047 A 
ATOM      2  N1  CHE B   01     19.914  68.622   9.696  0.00  0.00    -0.280 N 
ATOM      3  N2  CHE B   01     17.773  68.283   9.849  0.00  0.00    -0.171 NA
ATOM      4  C5  CHE B   01     22.453  69.880  10.742  0.00  0.00    +0.119 A 
ATOM      5  C11 CHE B   01     15.789  66.407   7.752  0.00  0.00    +0.033 A 
ATOM      6  H6  CHE B   01     16.278  67.225   8.778  0.00  0.00    +0.189 HD
ENDROOT
BRANCH   5   7
ATOM      7  C12 CHE B   01     20.651  67.801   8.300  0.00  0.00    -0.003 A 
ATOM      8  C13 CHE B   01     22.559  68.200   8.754  0.00  0.00    +0.029 A 
ATOM      9  C14 CHE B   01     20.786  68.387   7.427  0.00  0.00    +0.112 A 
ATOM     10  N4  CHE B   01     20.889  68.835   6.760  0.00  0.00    -0.255 NA
ATOM     11  C15 CHE B   01     23.725  69.315   7.619  0.00  0.00    +0.072 A 
ATOM     12  C16 CHE B   01     18.136  68.709   5.374  0.00  0.00    +0.028 A 
ATOM     13  C17 CHE B   01     16.230  68.321   4.903  0.00  0.00    +0.002 A 
ATOM     14  C18 CHE B   01     15.163  67.632   5.405  0.00  0.00    +0.001 A 
ATOM     15  C19 CHE B   01     16.951  67.511   6.633  0.00  0.00    +0.010 A 
ATOM     16  C20 CHE B   01     17.913  67.741   6.815  0.00  0.00    +0.008 A 
ENDBRANCH   5   7
BRANCH   4  17
ATOM     17  C6  CHE B   01     16.779  68.029   9.781  0.00  0.00    +0.091 A 
ATOM     18  C7  CHE B   01     16.797  68.037   9.714  0.00  0.00    +0.030 A 
ATOM     19  C8  CHE B   01     20.262  69.111  11.567  0.00  0.00    +0.004 A 
ATOM     20  C9  CHE B   01     18.229  68.422  11.787  0.00  0.00    +0.020 A 
ATOM     21  C10 CHE B   01     16.387  67.830  11.278  0.00  0.00    +0.111 A 
ATOM     22  N3  CHE B   01     17.490  68.219  10.836  0.00  0.00    -0.253 NA
ENDBRANCH   4  17
BRANCH   1  25
ATOM     23  C1  CHE B   01     12.886  64.428   5.167  0.00  0.00    +0.010 C 
ATOM     24  C2  CHE B   01     12.352  63.718   4.156  0.00  0.00    +0.010 C 
ATOM     25  C3  CHE B   01     16.352  65.780   6.685  0.00  0.00    +0.038 C 
ENDBRANCH   1  25
TORSDOF 3
ENDMDL
MODEL 3
REMARK VINA RESULT:      -8.3      1.939      7.263
REMARK  Name = dock_mp/CHEMBL3/CHEMBL338196.pdb
REMARK  3 active torsions:
REMARK  status: ('A' for Active; 'I' for Inactive)
REMARK    1  A    between atoms: C3_3  and  C4_4
REMARK    2  A    between atoms: C5_7  and  C6_8
REMARK    3  A    between atoms: C11_14  and  C12_15
REMARK                            x       y       z     vdW  Elec       q    Type
REMARK                         _______ _______ _______ _____ _____    ______ ____
ROOT
ATOM      1  C4  CHE B   01     22.606  70.919   9.306  0.00  0.00    +0.047 A 
ATOM      2  N1  CHE B   01     18.859  69.240   6.267  0.00  0.00    -0.280 N 
ATOM      3  N2  CHE B   01     20.903  69.973   6.337  0.00  0.00    -0.171 NA
ATOM      4  C5  CHE B   01     16.490  68.219   4.695  0.00  0.00    +0.119 A 
ATOM      5  C11 CHE B   01     22.696  70.929   9.117  0.00  0.00    +0.033 A 
ATOM      6  H6  CHE B   01     22.278  70.631   7.815  0.00  0.00    +0.189 HD
ENDROOT
BRANCH   5   7
ATOM      7  C12 CHE B   01     18.094  69.153   7.872  0.00  0.00    -0.003 A 
ATOM      8  C13 CHE B   01     16.234  68.711   7.278  0.00  0.00    +0.029 A 
ATOM      9  C14 CHE B   01     18.166  68.157   8.228  0.00  0.00    +0.112 A 
ATOM     10  N4  CHE B   01     18.220  67.396   8.500  0.00  0.00    -0.255 NA
ATOM     11  C15 CHE B   01     15.416  66.936   7.537  0.00  0.00    +0.072 A 
ATOM     12  C16 CHE B   01     21.068  67.256   9.679  0.00  0.00    +0.028 A 
ATOM     13  C17 CHE B   01     22.930  67.679  10.279  0.00  0.00    +0.002 A 
ATOM     14  C18 CHE B   01     23.800  68.731  10.279  0.00  0.00    +0.001 A 
ATOM     15  C19 CHE B   01     21.877  69.172   9.369  0.00  0.00    +0.010 A 
ATOM     16  C20 CHE B   01     20.950  68.900   9.091  0.00  0.00    +0.008 A 
ENDBRANCH   5   7
BRANCH   4  17
ATOM     17  C6  CHE B   01     21.846  70.331   6.539  0.00  0.00    +0.091 A 
ATOM     18  C7  CHE B   01     21.812  70.338   6.600  0.00  0.00    +0.030 A 
ATOM     19  C8  CHE B   01     18.844  68.809   4.267  0.00  0.00    +0.004 A 
ATOM     20  C9  CHE B   01     20.898  69.459   4.390  0.00  0.00    +0.020 A 
ATOM     21  C10 CHE B   01     22.590  70.182   5.176  0.00  0.00    +0.111 A 
ATOM     22  N3  CHE B   01     21.398  69.890   5.416  0.00  0.00    -0.253 NA
ENDBRANCH   4  17
BRANCH   1  25
ATOM     23  C1  CHE B   01     25.552  71.051  12.412  0.00  0.00    +0.010 C 
ATOM     24  C2  CHE B   01     26.066  71.059  13.656  0.00  0.00    +0.010 C 
ATOM     25  C3  CHE B   01     22.112  70.863  10.343  0.00  0.00    +0.038 C 
ENDBRANCH   1  25
TORSDOF 3
ENDMDL
MODEL 4
REMARK VINA RESULT:      -8.3      2.190      7.244
REMARK  Name = dock_mp/CHEMBL3/CHEMBL338196.pdb
REMARK  3 active torsions:
REMARK  status: ('A' for Active; 'I' for Inactive)
REMARK    1  A    between atoms: C3_3  and  C4_4
REMARK    2  A    between atoms: C5_7  and  C6_8
REMARK    3  A    between atoms: C11_14  and  C12_15
REMARK                            x       y       z     vdW  Elec       q    Type
REMARK                         _______ _______ _______ _____ _____    ______ ____
ROOT
ATOM      1  C4  CHE B   01     20.802  67.882   9.526  0.00  0.00    +0.047 A 
ATOM      2  N1  CHE B   01     17.249  68.132   5.863  0.00  0.00    -0.280 N 
ATOM      3  N2  CHE B   01     17.613  68.230   8.003  0.00  0.00    -0.171 NA
ATOM      4  C5  CHE B   01     15.351  68.238   3.516  0.00  0.00    +0.119 A 
ATOM      5  C11 CHE B   01     20.627  67.915   9.638  0.00  0.00    +0.033 A 
ATOM      6  H6  CHE B   01     19.276  68.085   9.314  0.00  0.00    +0.189 HD
ENDROOT
BRANCH   5   7
ATOM      7  C12 CHE B   01     18.731  67.854   4.917  0.00  0.00    -0.003 A 
ATOM      8  C13 CHE B   01     17.843  67.602   3.141  0.00  0.00    +0.029 A 
ATOM      9  C14 CHE B   01     19.216  68.700   4.500  0.00  0.00    +0.112 A 
ATOM     10  N4  CHE B   01     19.585  69.347   4.182  0.00  0.00    -0.255 NA
ATOM     11  C15 CHE B   01     18.154  68.797   1.603  0.00  0.00    +0.072 A 
ATOM     12  C16 CHE B   01     21.309  70.408   6.510  0.00  0.00    +0.028 A 
ATOM     13  C17 CHE B   01     22.207  70.677   8.279  0.00  0.00    +0.002 A 
ATOM     14  C18 CHE B   01     22.248  70.097   9.514  0.00  0.00    +0.001 A 
ATOM     15  C19 CHE B   01     20.929  69.094   8.107  0.00  0.00    +0.010 A 
ATOM     16  C20 CHE B   01     20.510  69.011   7.198  0.00  0.00    +0.008 A 
ENDBRANCH   5   7
BRANCH   4  17
ATOM     17  C6  CHE B   01     17.949  68.250   8.975  0.00  0.00    +0.091 A 
ATOM     18  C7  CHE B   01     18.008  68.250   8.937  0.00  0.00    +0.030 A 
ATOM     19  C8  CHE B   01     15.210  68.257   5.976  0.00  0.00    +0.004 A 
ATOM     20  C9  CHE B   01     15.601  68.268   8.098  0.00  0.00    +0.020 A 
ATOM     21  C10 CHE B   01     16.633  68.270   9.812  0.00  0.00    +0.111 A 
ATOM     22  N3  CHE B   01     16.729  68.260   8.566  0.00  0.00    -0.253 NA
ENDBRANCH   4  17
BRANCH   1  25
ATOM     23  C1  CHE B   01     23.868  66.146  11.960  0.00  0.00    +0.010 C 
ATOM     24  C2  CHE B   01     25.066  65.632  12.294  0.00  0.00    +0.010 C 
ATOM     25  C3  CHE B   01     21.760  67.703   8.915  0.00  0.00    +0.038 C 
ENDBRANCH   1  25
TORSDOF 3
ENDMDL
MODEL 5
REMARK VINA RESULT:      -8.3      2.540      4.820
REMARK  Name = dock_mp/CHEMBL3/CHEMBL338196.pdb
REMARK  3 active torsions:
REMARK  status: ('A' for Active; 'I' for Inactive)
REMARK    1  A    between atoms: C3_3  and  C4_4
REMARK    2  A    between atoms: C5_7  and  C6_8
REMARK    3  A    between atoms: C11_14  and  C12_15
REMARK                            x       y       z     vdW  Elec       q    Type
REMARK                         _______ _______ _______ _____ _____    ______ ____
ROOT
ATOM      1  C4  CHE B   01     16.907  68.988   8.610  0.00  0.00    +0.047 A 
ATOM      2  N1  CHE B   01     21.039  69.172  11.609  0.00  0.00    -0.280 N 
ATOM      3  N2  CHE B   01     19.086  68.265  11.319  0.00  0.00    -0.171 NA
ATOM      4  C5  CHE B   01     23.585  69.466  13.208  0.00  0.00    +0.119 A 
ATOM      5  C11 CHE B   01     16.858  68.850   8.760  0.00  0.00    +0.033 A 
ATOM      6  H6  CHE B   01     17.502  68.382   9.912  0.00  0.00    +0.189 HD
ENDROOT
BRANCH   5   7
ATOM      7  C12 CHE B   01     21.461  70.340  10.334  0.00  0.00    -0.003 A 
ATOM      8  C13 CHE B   01     23.136  71.059  11.160  0.00  0.00    +0.029 A 
ATOM      9  C14 CHE B   01     22.076  69.880   9.602  0.00  0.00    +0.112 A 
ATOM     10  N4  CHE B   01     22.546  69.530   9.044  0.00  0.00    -0.255 NA
ATOM     11  C15 CHE B   01     24.934  70.702  10.432  0.00  0.00    +0.072 A 
ATOM     12  C16 CHE B   01     20.529  68.080   7.214  0.00  0.00    +0.028 A 
ATOM     13  C17 CHE B   01     18.865  67.351   6.374  0.00  0.00    +0.002 A 
ATOM     14  C18 CHE B   01     17.514  67.375   6.571  0.00  0.00    +0.001 A 
ATOM     15  C19 CHE B   01     18.644  68.502   8.046  0.00  0.00    +0.010 A 
ATOM     16  C20 CHE B   01     19.513  68.838   8.421  0.00  0.00    +0.008 A 
ENDBRANCH   5   7
BRANCH   4  17
ATOM     17  C6  CHE B   01     18.153  67.933  11.042  0.00  0.00    +0.091 A 
ATOM     18  C7  CHE B   01     18.179  67.960  10.983  0.00  0.00    +0.030 A 
ATOM     19  C8  CHE B   01     21.336  68.499  13.498  0.00  0.00    +0.004 A 
ATOM     20  C9  CHE B   01     19.319  67.773  13.254  0.00  0.00    +0.020 A 
ATOM     21  C10 CHE B   01     17.581  67.337  12.365  0.00  0.00    +0.111 A 
ATOM     22  N3  CHE B   01     18.716  67.832  12.195  0.00  0.00    -0.253 NA
ENDBRANCH   4  17
BRANCH   1  25
ATOM     23  C1  CHE B   01     15.388  67.720   4.812  0.00  0.00    +0.010 C 
ATOM     24  C2  CHE B   01     15.131  67.742   3.491  0.00  0.00    +0.010 C 
ATOM     25  C3  CHE B   01     17.180  69.742   7.786  0.00  0.00    +0.038 C 
ENDBRANCH   1  25
TORSDOF 3
ENDMDL
MODEL 6
REMARK VINA RESULT:      -8.1      2.376      8.268
REMARK  Name = dock_mp/CHEMBL3/CHEMBL338196.pdb
REMARK  3 active torsions:
REMARK  status: ('A' for Active; 'I' for Inactive)
REMARK    1  A    between atoms: C3_3  and  C4_4
REMARK    2  A    between atoms: C5_7  and  C6_8
REMARK    3  A    between atoms: C11_14  and  C12_15
REMARK                            x       y       z     vdW  Elec       q    Type
REMARK                         _______ _______ _______ _____ _____    ______ ____
ROOT
ATOM      1  C4  CHE B   01     22.043  70.417  10.991  0.00  0.00    +0.047 A 
ATOM      2  N1  CHE B   01     17.562  68.309   9.735  0.00  0.00    -0.280 N 
ATOM      3  N2  CHE B   01     19.099  68.450  11.265  0.00  0.00    -0.171 NA
ATOM      4  C5  CHE B   01     14.930  67.199   8.755  0.00  0.00    +0.119 A 
ATOM      5  C11 CHE B   01     22.001  70.301  11.161  0.00  0.00    +0.033 A 
ATOM      6  H6  CHE B   01     20.950  69.453  11.533  0.00  0.00    +0.189 HD
ENDROOT
BRANCH   5   7
ATOM      7  C12 CHE B   01     17.920  69.293   8.296  0.00  0.00    -0.003 A 
ATOM      8  C13 CHE B   01     16.169  69.047   7.357  0.00  0.00    +0.029 A 
ATOM      9  C14 CHE B   01     18.360  68.711   7.527  0.00  0.00    +0.112 A 
ATOM     10  N4  CHE B   01     18.696  68.266   6.939  0.00  0.00    -0.255 NA
ATOM     11  C15 CHE B   01     15.980  68.015   5.687  0.00  0.00    +0.072 A 
ATOM     12  C16 CHE B   01     21.677  68.165   7.727  0.00  0.00    +0.028 A 
ATOM     13  C17 CHE B   01     23.436  68.400   8.651  0.00  0.00    +0.002 A 
ATOM     14  C18 CHE B   01     23.945  69.009   9.763  0.00  0.00    +0.001 A 
ATOM     15  C19 CHE B   01     21.804  69.280   9.506  0.00  0.00    +0.010 A 
ATOM     16  C20 CHE B   01     20.951  69.126   8.996  0.00  0.00    +0.008 A 
ENDBRANCH   5   7
BRANCH   4  17
ATOM     17  C6  CHE B   01     19.905  68.623  11.880  0.00  0.00    +0.091 A 
ATOM     18  C7  CHE B   01     19.922  68.656  11.821  0.00  0.00    +0.030 A 
ATOM     19  C8  CHE B   01     16.292  67.111  10.806  0.00  0.00    +0.004 A 
ATOM     20  C9  CHE B   01     17.811  67.320  12.325  0.00  0.00    +0.020 A 
ATOM     21  C10 CHE B   01     19.519  67.887  13.200  0.00  0.00    +0.111 A 
ATOM     22  N3  CHE B   01     18.845  67.945  12.149  0.00  0.00    -0.253 NA
ENDBRANCH   4  17
BRANCH   1  25
ATOM     23  C1  CHE B   01     26.207  71.405  10.810  0.00  0.00    +0.010 C 
ATOM     24  C2  CHE B   01     27.351  71.938  10.346  0.00  0.00    +0.010 C 
ATOM     25  C3  CHE B   01     22.275  71.052  10.061  0.00  0.00    +0.038 C 
ENDBRANCH   1  25
TORSDOF 3
ENDMDL
MODEL 7
REMARK VINA RESULT:      -8.1      1.865      2.529
REMARK  Name = dock_mp/CHEMBL3/CHEMBL338196.pdb
REMARK  3 active torsions:
REMARK  status: ('A' for Active; 'I' for Inactive)
REMARK    1  A    between atoms: C3_3  and  C4_4
REMARK    2  A    between atoms: C5_7  and  C6_8
REMARK    3  A    between atoms: C11_14  and  C12_15
REMARK                            x       y       z     vdW  Elec       q    Type
REMARK                         _______ _______ _______ _____ _____    ______ ____
ROOT
ATOM      1  C4  CHE B   01     18.260  67.627   7.450  0.00  0.00    +0.047 A 
ATOM      2  N1  CHE B   01     22.036  69.514  10.327  0.00  0.00    -0.280 N 
ATOM      3  N2  CHE B   01     20.892  69.768   8.498  0.00  0.00    -0.171 NA
ATOM      4  C5  CHE B   01     24.222  70.423  12.204  0.00  0.00    +0.119 A 
ATOM      5  C11 CHE B   01     18.320  67.794   7.338  0.00  0.00    +0.033 A 
ATOM      6  H6  CHE B   01     19.297  68.783   7.502  0.00  0.00    +0.189 HD
ENDROOT
BRANCH   5   7
ATOM      7  C12 CHE B   01     21.523  68.099  11.278  0.00  0.00    -0.003 A 
ATOM      8  C13 CHE B   01     22.988  68.171  12.641  0.00  0.00    +0.029 A 
ATOM      9  C14 CHE B   01     20.843  68.287  12.069  0.00  0.00    +0.112 A 
ATOM     10  N4  CHE B   01     20.324  68.430  12.674  0.00  0.00    -0.255 NA
ATOM     11  C15 CHE B   01     22.659  68.499  14.558  0.00  0.00    +0.072 A 
ATOM     12  C16 CHE B   01     17.578  68.475  11.268  0.00  0.00    +0.028 A 
ATOM     13  C17 CHE B   01     16.100  68.407   9.920  0.00  0.00    +0.002 A 
ATOM     14  C18 CHE B   01     15.936  68.214   8.578  0.00  0.00    +0.001 A 
ATOM     15  C19 CHE B   01     18.004  68.119   9.239  0.00  0.00    +0.010 A 
ATOM     16  C20 CHE B   01     18.701  68.165   9.962  0.00  0.00    +0.008 A 
ENDBRANCH   5   7
BRANCH   4  17
ATOM     17  C6  CHE B   01     20.266  69.748   7.682  0.00  0.00    +0.091 A 
ATOM     18  C7  CHE B   01     20.226  69.721   7.732  0.00  0.00    +0.030 A 
ATOM     19  C8  CHE B   01     23.587  70.660   9.834  0.00  0.00    +0.004 A 
ATOM     20  C9  CHE B   01     22.591  70.653   7.920  0.00  0.00    +0.020 A 
ATOM     21  C10 CHE B   01     21.160  70.352   6.555  0.00  0.00    +0.111 A 
ATOM     22  N3  CHE B   01     21.460  70.222   7.761  0.00  0.00    -0.253 NA
ENDBRANCH   4  17
BRANCH   1  25
ATOM     23  C1  CHE B   01     14.963  65.637   5.576  0.00  0.00    +0.010 C 
ATOM     24  C2  CHE B   01     13.990  64.728   5.383  0.00  0.00    +0.010 C 
ATOM     25  C3  CHE B   01     17.928  66.713   8.064  0.00  0.00    +0.038 C 
ENDBRANCH   1  25
TORSDOF 3
ENDMDL
MODEL 8
REMARK VINA RESULT:      -8.1      2.243      7.768
REMARK  Name = dock_mp/CHEMBL3/CHEMBL338196.pdb
REMARK  3 active torsions:
REMARK  status: ('A' for Active; 'I' for Inactive)
REMARK    1  A    between atoms: C3_3  and  C4_4
REMARK    2  A    between atoms: C5_7  and  C6_8
REMARK    3  A    between atoms: C11_14  and  C12_15
REMARK                            x       y       z     vdW  Elec       q    Type
REMARK                         _______ _______ _______ _____ _____    ______ ____
ROOT
ATOM      1  C4  CHE B   01     22.330  68.072  12.039  0.00  0.00    +0.047 A 
ATOM      2  N1  CHE B   01     18.396  68.287   8.786  0.00  0.00    -0.280 N 
ATOM      3  N2  CHE B   01     18.999  68.447  10.868  0.00  0.00    -0.171 NA
ATOM      4  C5  CHE B   01     16.250  68.362   6.662  0.00  0.00    +0.119 A 
ATOM      5  C11 CHE B   01     22.170  68.113  12.168  0.00  0.00    +0.033 A 
ATOM      6  H6  CHE B   01     20.794  68.305  11.991  0.00  0.00    +0.189 HD
ENDROOT
BRANCH   5   7
ATOM      7  C12 CHE B   01     19.757  67.943   7.692  0.00  0.00    -0.003 A 
ATOM      8  C13 CHE B   01     18.694  67.635   6.024  0.00  0.00    +0.029 A 
ATOM      9  C14 CHE B   01     20.122  68.829   7.239  0.00  0.00    +0.112 A 
ATOM     10  N4  CHE B   01     20.401  69.506   6.893  0.00  0.00    -0.255 NA
ATOM     11  C15 CHE B   01     18.732  68.865   4.482  0.00  0.00    +0.072 A 
ATOM     12  C16 CHE B   01     22.291  70.681   9.030  0.00  0.00    +0.028 A 
ATOM     13  C17 CHE B   01     23.361  71.005  10.689  0.00  0.00    +0.002 A 
ATOM     14  C18 CHE B   01     23.588  70.419  11.902  0.00  0.00    +0.001 A 
ATOM     15  C19 CHE B   01     22.201  69.326  10.635  0.00  0.00    +0.010 A 
ATOM     16  C20 CHE B   01     21.688  69.219   9.778  0.00  0.00    +0.008 A 
ENDBRANCH   5   7
BRANCH   4  17
ATOM     17  C6  CHE B   01     19.442  68.491  11.795  0.00  0.00    +0.091 A 
ATOM     18  C7  CHE B   01     19.496  68.493  11.751  0.00  0.00    +0.030 A 
ATOM     19  C8  CHE B   01     16.386  68.385   9.123  0.00  0.00    +0.004 A 
ATOM     20  C9  CHE B   01     17.011  68.419  11.188  0.00  0.00    +0.020 A 
ATOM     21  C10 CHE B   01     18.228  68.465  12.775  0.00  0.00    +0.111 A 
ATOM     22  N3  CHE B   01     18.184  68.454  11.526  0.00  0.00    -0.253 NA
ENDBRANCH   4  17
BRANCH   1  25
ATOM     23  C1  CHE B   01     24.638  64.758  13.464  0.00  0.00    +0.010 C 
ATOM     24  C2  CHE B   01     25.611  63.829  13.502  0.00  0.00    +0.010 C 
ATOM     25  C3  CHE B   01     23.210  67.850  11.332  0.00  0.00    +0.038 C 
ENDBRANCH   1  25
TORSDOF 3
ENDMDL
MODEL 9
REMARK VINA RESULT:      -7.9      1.703      2.408
REMARK  Name = dock_mp/CHEMBL3/CHEMBL338196.pdb
REMARK  3 active torsions:
REMARK  status: ('A' for Active; 'I' for Inactive)
REMARK    1  A    between atoms: C3_3  and  C4_4
REMARK    2  A    between atoms: C5_7  and  C6_8
REMARK    3  A    between atoms: C11_14  and  C12_15
REMARK                            x       y       z     vdW  Elec       q    Type
REMARK                         _______ _______ _______ _____ _____    ______ ____
ROOT
ATOM      1  C4  CHE B   01     15.249  67.726   4.534  0.00  0.00    +0.047 A 
ATOM      2  N1  CHE B   01     19.847  69.271   6.138  0.00  0.00    -0.280 N 
ATOM      3  N2  CHE B   01     18.703  68.546   4.439  0.00  0.00    -0.171 NA
ATOM      4  C5  CHE B   01     22.452  70.222   7.334  0.00  0.00    +0.119 A 
ATOM      5  C11 CHE B   01     15.364  67.708   4.359  0.00  0.00    +0.033 A 
ATOM      6  H6  CHE B   01     16.705  67.953   4.039  0.00  0.00    +0.189 HD
ENDROOT
BRANCH   5   7
ATOM      7  C12 CHE B   01     18.873  69.421   7.620  0.00  0.00    -0.003 A 
ATOM      8  C13 CHE B   01     20.269  70.322   8.737  0.00  0.00    +0.029 A 
ATOM      9  C14 CHE B   01     18.899  68.622   8.317  0.00  0.00    +0.112 A 
ATOM     10  N4  CHE B   01     18.919  68.012   8.849  0.00  0.00    -0.255 NA
ATOM     11  C15 CHE B   01     21.009  69.525  10.383  0.00  0.00    +0.072 A 
ATOM     12  C16 CHE B   01     16.846  66.017   7.736  0.00  0.00    +0.028 A 
ATOM     13  C17 CHE B   01     15.450  65.101   6.632  0.00  0.00    +0.002 A 
ATOM     14  C18 CHE B   01     14.730  65.318   5.492  0.00  0.00    +0.001 A 
ATOM     15  C19 CHE B   01     16.103  66.927   5.991  0.00  0.00    +0.010 A 
ATOM     16  C20 CHE B   01     16.803  67.336   6.586  0.00  0.00    +0.008 A 
ENDBRANCH   5   7
BRANCH   4  17
ATOM     17  C6  CHE B   01     18.030  68.199   3.743  0.00  0.00    +0.091 A 
ATOM     18  C7  CHE B   01     18.004  68.174   3.803  0.00  0.00    +0.030 A 
ATOM     19  C8  CHE B   01     21.413  69.978   5.113  0.00  0.00    +0.004 A 
ATOM     20  C9  CHE B   01     20.144  69.507   3.432  0.00  0.00    +0.020 A 
ATOM     21  C10 CHE B   01     18.598  68.762   2.404  0.00  0.00    +0.111 A 
ATOM     22  N3  CHE B   01     19.107  68.873   3.541  0.00  0.00    -0.253 NA
ENDBRANCH   4  17
BRANCH   1  25
ATOM     23  C1  CHE B   01     12.151  64.771   4.634  0.00  0.00    +0.010 C 
ATOM     24  C2  CHE B   01     11.093  64.076   5.090  0.00  0.00    +0.010 C 
ATOM     25  C3  CHE B   01     14.620  67.823   5.491  0.00  0.00    +0.038 C 
ENDBRANCH   1  25
TORSDOF 3
ENDMDL
MODEL 10
REMARK VINA RESULT:      -7.9      3.058      4.963
REMARK  Name = dock_mp/CHEMBL3/CHEMBL338196.pdb
REMARK  3 active torsions:
REMARK  status: ('A' for Active; 'I' for Inactive)
REMARK    1  A    between atoms: C3_3  and  C4_4
REMARK    2  A    between atoms: C5_7  and  C6_8
REMARK    3  A    between atoms: C11_14  and  C12_15
REMARK                            x       y       z     vdW  Elec       q    Type
REMARK                         _______ _______ _______ _____ _____    ______ ____
ROOT
ATOM      1  C4  CHE B   01     18.775  67.533   7.039  0.00  0.00    +0.047 A 
ATOM      2  N1  CHE B   01     21.165  68.093  11.520  0.00  0.00    -0.280 N 
ATOM      3  N2  CHE B   01     19.241  68.124  10.510  0.00  0.00    -0.171 NA
ATOM      4  C5  CHE B   01     22.813  68.373  14.036  0.00  0.00    +0.119 A 
ATOM      5  C11 CHE B   01     18.615  67.575   7.169  0.00  0.00    +0.033 A 
ATOM      6  H6  CHE B   01     18.506  67.842   8.539  0.00  0.00    +0.189 HD
ENDROOT
BRANCH   5   7
ATOM      7  C12 CHE B   01     22.521  67.735  10.424  0.00  0.00    -0.003 A 
ATOM      8  C13 CHE B   01     23.944  67.570  11.823  0.00  0.00    +0.029 A 
ATOM      9  C14 CHE B   01     23.041  68.587  10.065  0.00  0.00    +0.112 A 
ATOM     10  N4  CHE B   01     23.438  69.237   9.790  0.00  0.00    -0.255 NA
ATOM     11  C15 CHE B   01     25.466  68.816  11.962  0.00  0.00    +0.072 A 
ATOM     12  C16 CHE B   01     21.723  70.172   7.402  0.00  0.00    +0.028 A 
ATOM     13  C17 CHE B   01     20.310  70.354   5.996  0.00  0.00    +0.002 A 
ATOM     14  C18 CHE B   01     19.165  69.726   5.596  0.00  0.00    +0.001 A 
ATOM     15  C19 CHE B   01     20.127  68.805   7.314  0.00  0.00    +0.010 A 
ATOM     16  C20 CHE B   01     20.866  68.767   7.995  0.00  0.00    +0.008 A 
ENDBRANCH   5   7
BRANCH   4  17
ATOM     17  C6  CHE B   01     18.420  68.102   9.891  0.00  0.00    +0.091 A 
ATOM     18  C7  CHE B   01     18.474  68.091   9.847  0.00  0.00    +0.030 A 
ATOM     19  C8  CHE B   01     20.434  68.467  13.398  0.00  0.00    +0.004 A 
ATOM     20  C9  CHE B   01     18.538  68.464  12.367  0.00  0.00    +0.020 A 
ATOM     21  C10 CHE B   01     17.225  68.344  10.863  0.00  0.00    +0.111 A 
ATOM     22  N3  CHE B   01     18.437  68.292  11.163  0.00  0.00    -0.253 NA
ENDBRANCH   4  17
BRANCH   1  25
ATOM     23  C1  CHE B   01     17.719  68.372   2.974  0.00  0.00    +0.010 C 
ATOM     24  C2  CHE B   01     17.850  68.478   1.640  0.00  0.00    +0.010 C 
ATOM     25  C3  CHE B   01     19.651  67.302   6.331  0.00  0.00    +0.038 C 
ENDBRANCH   1  25
TORSDOF 3
ENDMDL
