MODEL 1
REMARK VINA RESULT:     -10.2      0.000      0.000
REMARK  Name = dock_mp/CHEMBL3/CHEMBL382838.pdb
REMARK  3 active torsions:
REMARK  status: ('A' for Active; 'I' for Inactive)
REMARK    1  A    between atoms: C1_1  and  C2_2
REMARK    2  A    between atoms: C6_6  and  C7_7
REMARK    3  A    between atoms: C12_14  and  C13_15
REMARK                            x       y       z     vdW  Elec       q    Type
REMARK                         _______ _______ _______ _____ _____    ______ ____
ROOT
ATOM      1  C7  CHE B   08     18.499  68.394   6.365  0.00  0.00    +0.119 A 
ATOM      2  N1  CHE B   08     16.482  68.850   2.926  0.00  0.00    -0.169 NA
ATOM      3  N2  CHE B   08     16.181  68.796   4.358  0.00  0.00    -0.267 N 
ATOM      4  C8  CHE B   08     17.018  68.580   6.199  0.00  0.00    +0.144 C 
ATOM      5  C9  CHE B   08     15.806  68.670   7.060  0.00  0.00    +0.029 C 
ATOM      6  C10 CHE B   08     15.432  68.698   7.326  0.00  0.00    +0.057 C 
ATOM      7  C11 CHE B   08     17.010  68.504   7.423  0.00  0.00    +0.048 A 
ATOM      8  C12 CHE B   08     17.384  68.476   7.157  0.00  0.00    +0.032 A 
ENDROOT
BRANCH   8   9
ATOM      9  C13 CHE B   08     19.010  68.049  10.874  0.00  0.00    -0.012 A 
ATOM     10  C14 CHE B   08     15.356  67.510   3.777  0.00  0.00    +0.011 A 
ATOM     11  C15 CHE B   08     17.461  67.228   8.362  0.00  0.00    +0.028 A 
ATOM     12  C16 CHE B   08     15.392  66.120   5.015  0.00  0.00    +0.066 A 
ATOM     13  N3  CHE B   08     15.173  65.362   5.198  0.00  0.00    -0.344 N 
ATOM     14  C17 CHE B   08     15.471  64.881   6.218  0.00  0.00    +0.197 A 
ATOM     15  N4  CHE B   08     14.211  65.061   3.464  0.00  0.00    -0.236 NA
ATOM     16  C18 CHE B   08     17.670  66.437   9.456  0.00  0.00    +0.089 A 
ATOM     17  C19 CHE B   08     16.020  66.781   5.759  0.00  0.00    +0.038 A 
ATOM     18  H15 CHE B   08     16.511  65.453   7.886  0.00  0.00    +0.167 HD
ENDBRANCH   8   9
BRANCH   1  24
ATOM     19  C1  CHE B   08     18.856  68.994   2.477  0.00  0.00    +0.065 C 
ATOM     20  C2  CHE B   08     19.099  68.919   3.523  0.00  0.00    +0.039 A 
ATOM     21  C3  CHE B   08     20.054  69.091   4.079  0.00  0.00    +0.023 A 
ATOM     22  C4  CHE B   08     18.611  68.909   2.646  0.00  0.00    +0.004 A 
ATOM     23  C5  CHE B   08     16.804  68.600   1.464  0.00  0.00    +0.030 A 
ATOM     24  C6  CHE B   08     18.109  68.576   4.206  0.00  0.00    +0.092 A 
ATOM     25  N5  CHE B   08     21.229  68.863   8.124  0.00  0.00    -0.250 NA
ENDBRANCH   1  24
TORSDOF 2
ENDMDL
MODEL 2
REMARK VINA RESULT:      -9.8      2.388      3.443
REMARK  Name = dock_mp/CHEMBL3/CHEMBL382838.pdb
REMARK  3 active torsions:
REMARK  status: ('A' for Active; 'I' for Inactive)
REMARK    1  A    between atoms: C1_1  and  C2_2
REMARK    2  A    between atoms: C6_6  and  C7_7
REMARK    3  A    between atoms: C12_14  and  C13_15
REMARK                            x       y       z     vdW  Elec       q    Type
REMARK                         _______ _______ _______ _____ _____    ______ ____
ROOT
ATOM      1  C7  CHE B   08     19.616  69.254   6.080  0.00  0.00    +0.119 A 
ATOM      2  N1  CHE B   08     16.624  66.972   4.685  0.00  0.00    -0.169 NA
ATOM      3  N2  CHE B   08     17.647  66.895   5.731  0.00  0.00    -0.267 N 
ATOM      4  C8  CHE B   08     19.201  67.899   6.577  0.00  0.00    +0.144 C 
ATOM      5  C9  CHE B   08     19.614  66.925   7.626  0.00  0.00    +0.029 C 
ATOM      6  C10 CHE B   08     19.741  66.624   7.950  0.00  0.00    +0.057 C 
ATOM      7  C11 CHE B   08     20.123  68.057   7.369  0.00  0.00    +0.048 A 
ATOM      8  C12 CHE B   08     19.996  68.358   7.045  0.00  0.00    +0.032 A 
ENDROOT
BRANCH   8   9
ATOM      9  C13 CHE B   08     23.121  70.326   8.778  0.00  0.00    -0.012 A 
ATOM     10  C14 CHE B   08     16.253  66.857   6.585  0.00  0.00    +0.011 A 
ATOM     11  C15 CHE B   08     20.271  69.232   8.521  0.00  0.00    +0.028 A 
ATOM     12  C16 CHE B   08     16.465  67.777   8.189  0.00  0.00    +0.066 A 
ATOM     13  N3  CHE B   08     16.129  68.031   8.881  0.00  0.00    -0.344 N 
ATOM     14  C17 CHE B   08     16.745  68.648   9.656  0.00  0.00    +0.197 A 
ATOM     15  N4  CHE B   08     14.339  67.219   8.484  0.00  0.00    -0.236 NA
ATOM     16  C18 CHE B   08     20.749  69.952   9.578  0.00  0.00    +0.089 A 
ATOM     17  C19 CHE B   08     17.587  68.013   7.921  0.00  0.00    +0.038 A 
ATOM     18  H15 CHE B   08     18.655  69.369   9.805  0.00  0.00    +0.167 HD
ENDBRANCH   8   9
BRANCH   1  24
ATOM     19  C1  CHE B   08     17.086  68.668   3.104  0.00  0.00    +0.065 C 
ATOM     20  C2  CHE B   08     17.940  69.009   3.664  0.00  0.00    +0.039 A 
ATOM     21  C3  CHE B   08     18.817  69.638   3.371  0.00  0.00    +0.023 A 
ATOM     22  C4  CHE B   08     17.078  68.569   3.398  0.00  0.00    +0.004 A 
ATOM     23  C5  CHE B   08     15.328  67.353   3.861  0.00  0.00    +0.030 A 
ATOM     24  C6  CHE B   08     17.910  68.610   4.848  0.00  0.00    +0.092 A 
ATOM     25  N5  CHE B   08     22.242  71.086   5.363  0.00  0.00    -0.250 NA
ENDBRANCH   1  24
TORSDOF 2
ENDMDL
MODEL 3
REMARK VINA RESULT:      -9.3      2.098      6.911
REMARK  Name = dock_mp/CHEMBL3/CHEMBL382838.pdb
REMARK  3 active torsions:
REMARK  status: ('A' for Active; 'I' for Inactive)
REMARK    1  A    between atoms: C1_1  and  C2_2
REMARK    2  A    between atoms: C6_6  and  C7_7
REMARK    3  A    between atoms: C12_14  and  C13_15
REMARK                            x       y       z     vdW  Elec       q    Type
REMARK                         _______ _______ _______ _____ _____    ______ ____
ROOT
ATOM      1  C7  CHE B   08     17.476  68.362   6.878  0.00  0.00    +0.119 A 
ATOM      2  N1  CHE B   08     18.725  67.753  10.643  0.00  0.00    -0.169 NA
ATOM      3  N2  CHE B   08     19.211  67.492   9.286  0.00  0.00    -0.267 N 
ATOM      4  C8  CHE B   08     18.756  67.708   7.316  0.00  0.00    +0.144 C 
ATOM      5  C9  CHE B   08     19.956  67.086   6.690  0.00  0.00    +0.029 C 
ATOM      6  C10 CHE B   08     20.327  66.894   6.497  0.00  0.00    +0.057 C 
ATOM      7  C11 CHE B   08     18.951  67.598   6.110  0.00  0.00    +0.048 A 
ATOM      8  C12 CHE B   08     18.580  67.790   6.303  0.00  0.00    +0.032 A 
ENDROOT
BRANCH   8   9
ATOM      9  C13 CHE B   08     17.718  68.198   2.337  0.00  0.00    -0.012 A 
ATOM     10  C14 CHE B   08     20.358  68.492   9.884  0.00  0.00    +0.011 A 
ATOM     11  C15 CHE B   08     19.114  68.801   4.996  0.00  0.00    +0.028 A 
ATOM     12  C16 CHE B   08     20.984  69.615   8.538  0.00  0.00    +0.066 A 
ATOM     13  N3  CHE B   08     21.482  70.219   8.329  0.00  0.00    -0.344 N 
ATOM     14  C17 CHE B   08     21.512  70.620   7.234  0.00  0.00    +0.197 A 
ATOM     15  N4  CHE B   08     22.250  70.425  10.170  0.00  0.00    -0.236 NA
ATOM     16  C18 CHE B   08     19.347  69.448   3.816  0.00  0.00    +0.089 A 
ATOM     17  C19 CHE B   08     20.265  69.106   7.759  0.00  0.00    +0.038 A 
ATOM     18  H15 CHE B   08     20.565  70.198   5.468  0.00  0.00    +0.167 HD
ENDBRANCH   8   9
BRANCH   1  24
ATOM     19  C1  CHE B   08     16.430  68.211  10.685  0.00  0.00    +0.065 C 
ATOM     20  C2  CHE B   08     16.370  68.196   9.609  0.00  0.00    +0.039 A 
ATOM     21  C3  CHE B   08     15.506  68.053   8.915  0.00  0.00    +0.023 A 
ATOM     22  C4  CHE B   08     16.707  68.256  10.553  0.00  0.00    +0.004 A 
ATOM     23  C5  CHE B   08     18.320  68.524  11.996  0.00  0.00    +0.030 A 
ATOM     24  C6  CHE B   08     17.488  68.375   9.080  0.00  0.00    +0.092 A 
ATOM     25  N5  CHE B   08     15.034  67.956   4.724  0.00  0.00    -0.250 NA
ENDBRANCH   1  24
TORSDOF 2
ENDMDL
MODEL 4
REMARK VINA RESULT:      -9.1      2.348      4.825
REMARK  Name = dock_mp/CHEMBL3/CHEMBL382838.pdb
REMARK  3 active torsions:
REMARK  status: ('A' for Active; 'I' for Inactive)
REMARK    1  A    between atoms: C1_1  and  C2_2
REMARK    2  A    between atoms: C6_6  and  C7_7
REMARK    3  A    between atoms: C12_14  and  C13_15
REMARK                            x       y       z     vdW  Elec       q    Type
REMARK                         _______ _______ _______ _____ _____    ______ ____
ROOT
ATOM      1  C7  CHE B   08     17.892  68.335   9.157  0.00  0.00    +0.119 A 
ATOM      2  N1  CHE B   08     16.598  67.120   5.559  0.00  0.00    -0.169 NA
ATOM      3  N2  CHE B   08     17.824  67.033   6.354  0.00  0.00    -0.267 N 
ATOM      4  C8  CHE B   08     18.663  67.557   8.131  0.00  0.00    +0.144 C 
ATOM      5  C9  CHE B   08     20.023  66.968   7.973  0.00  0.00    +0.029 C 
ATOM      6  C10 CHE B   08     20.443  66.786   7.924  0.00  0.00    +0.057 C 
ATOM      7  C11 CHE B   08     19.562  67.612   8.964  0.00  0.00    +0.048 A 
ATOM      8  C12 CHE B   08     19.142  67.794   9.012  0.00  0.00    +0.032 A 
ENDROOT
BRANCH   8   9
ATOM      9  C13 CHE B   08     20.875  68.819  12.560  0.00  0.00    -0.012 A 
ATOM     10  C14 CHE B   08     18.271  67.912   5.050  0.00  0.00    +0.011 A 
ATOM     11  C15 CHE B   08     20.280  68.986   9.560  0.00  0.00    +0.028 A 
ATOM     12  C16 CHE B   08     19.495  69.219   5.555  0.00  0.00    +0.066 A 
ATOM     13  N3  CHE B   08     19.964  69.840   5.330  0.00  0.00    -0.344 N 
ATOM     14  C17 CHE B   08     20.628  70.404   6.106  0.00  0.00    +0.197 A 
ATOM     15  N4  CHE B   08     19.415  69.750   3.403  0.00  0.00    -0.236 NA
ATOM     16  C18 CHE B   08     21.135  69.802  10.244  0.00  0.00    +0.089 A 
ATOM     17  C19 CHE B   08     19.455  68.846   6.671  0.00  0.00    +0.038 A 
ATOM     18  H15 CHE B   08     21.009  70.272   8.113  0.00  0.00    +0.167 HD
ENDBRANCH   8   9
BRANCH   1  24
ATOM     19  C1  CHE B   08     14.726  67.804   6.856  0.00  0.00    +0.065 C 
ATOM     20  C2  CHE B   08     15.338  67.954   7.729  0.00  0.00    +0.039 A 
ATOM     21  C3  CHE B   08     15.076  68.050   8.812  0.00  0.00    +0.023 A 
ATOM     22  C4  CHE B   08     15.027  67.822   6.784  0.00  0.00    +0.004 A 
ATOM     23  C5  CHE B   08     15.424  67.622   4.648  0.00  0.00    +0.030 A 
ATOM     24  C6  CHE B   08     16.551  68.028   7.438  0.00  0.00    +0.092 A 
ATOM     25  N5  CHE B   08     17.272  68.634  12.366  0.00  0.00    -0.250 NA
ENDBRANCH   1  24
TORSDOF 2
ENDMDL
MODEL 5
REMARK VINA RESULT:      -8.9      2.105      3.483
REMARK  Name = dock_mp/CHEMBL3/CHEMBL382838.pdb
REMARK  3 active torsions:
REMARK  status: ('A' for Active; 'I' for Inactive)
REMARK    1  A    between atoms: C1_1  and  C2_2
REMARK    2  A    between atoms: C6_6  and  C7_7
REMARK    3  A    between atoms: C12_14  and  C13_15
REMARK                            x       y       z     vdW  Elec       q    Type
REMARK                         _______ _______ _______ _____ _____    ______ ____
ROOT
ATOM      1  C7  CHE B   08     20.056  69.063   8.885  0.00  0.00    +0.119 A 
ATOM      2  N1  CHE B   08     19.356  68.060   5.063  0.00  0.00    -0.169 NA
ATOM      3  N2  CHE B   08     19.106  67.499   6.393  0.00  0.00    -0.267 N 
ATOM      4  C8  CHE B   08     19.365  67.828   8.383  0.00  0.00    +0.144 C 
ATOM      5  C9  CHE B   08     18.725  66.606   8.946  0.00  0.00    +0.029 C 
ATOM      6  C10 CHE B   08     18.528  66.228   9.119  0.00  0.00    +0.057 C 
ATOM      7  C11 CHE B   08     19.270  67.562   9.576  0.00  0.00    +0.048 A 
ATOM      8  C12 CHE B   08     19.467  67.939   9.403  0.00  0.00    +0.032 A 
ENDROOT
BRANCH   8   9
ATOM      9  C13 CHE B   08     19.960  68.548  13.406  0.00  0.00    -0.012 A 
ATOM     10  C14 CHE B   08     17.601  67.744   5.803  0.00  0.00    +0.011 A 
ATOM     11  C15 CHE B   08     18.466  68.430  10.734  0.00  0.00    +0.028 A 
ATOM     12  C16 CHE B   08     16.461  68.277   7.176  0.00  0.00    +0.066 A 
ATOM     13  N3  CHE B   08     15.715  68.502   7.395  0.00  0.00    -0.344 N 
ATOM     14  C17 CHE B   08     15.470  68.765   8.505  0.00  0.00    +0.197 A 
ATOM     15  N4  CHE B   08     14.962  68.350   5.543  0.00  0.00    -0.236 NA
ATOM     16  C18 CHE B   08     17.917  68.785  11.933  0.00  0.00    +0.089 A 
ATOM     17  C19 CHE B   08     17.341  68.201   7.954  0.00  0.00    +0.038 A 
ATOM     18  H15 CHE B   08     16.490  68.836  10.278  0.00  0.00    +0.167 HD
ENDBRANCH   8   9
BRANCH   1  24
ATOM     19  C1  CHE B   08     20.894  69.903   5.118  0.00  0.00    +0.065 C 
ATOM     20  C2  CHE B   08     20.950  69.875   6.193  0.00  0.00    +0.039 A 
ATOM     21  C3  CHE B   08     21.666  70.345   6.912  0.00  0.00    +0.023 A 
ATOM     22  C4  CHE B   08     20.667  69.732   5.240  0.00  0.00    +0.004 A 
ATOM     23  C5  CHE B   08     19.330  68.865   3.751  0.00  0.00    +0.030 A 
ATOM     24  C6  CHE B   08     20.033  69.185   6.687  0.00  0.00    +0.092 A 
ATOM     25  N5  CHE B   08     22.079  70.377  11.110  0.00  0.00    -0.250 NA
ENDBRANCH   1  24
TORSDOF 2
ENDMDL
MODEL 6
REMARK VINA RESULT:      -8.8      2.155      4.775
REMARK  Name = dock_mp/CHEMBL3/CHEMBL382838.pdb
REMARK  3 active torsions:
REMARK  status: ('A' for Active; 'I' for Inactive)
REMARK    1  A    between atoms: C1_1  and  C2_2
REMARK    2  A    between atoms: C6_6  and  C7_7
REMARK    3  A    between atoms: C12_14  and  C13_15
REMARK                            x       y       z     vdW  Elec       q    Type
REMARK                         _______ _______ _______ _____ _____    ______ ____
ROOT
ATOM      1  C7  CHE B   08     18.985  68.928   8.126  0.00  0.00    +0.119 A 
ATOM      2  N1  CHE B   08     15.840  66.866   6.727  0.00  0.00    -0.169 NA
ATOM      3  N2  CHE B   08     17.283  66.934   6.487  0.00  0.00    -0.267 N 
ATOM      4  C8  CHE B   08     18.995  67.870   7.061  0.00  0.00    +0.144 C 
ATOM      5  C9  CHE B   08     19.984  67.195   6.173  0.00  0.00    +0.029 C 
ATOM      6  C10 CHE B   08     20.289  66.987   5.899  0.00  0.00    +0.057 C 
ATOM      7  C11 CHE B   08     20.200  68.100   7.035  0.00  0.00    +0.048 A 
ATOM      8  C12 CHE B   08     19.894  68.308   7.310  0.00  0.00    +0.032 A 
ENDROOT
BRANCH   8   9
ATOM      9  C13 CHE B   08     23.358  70.153   8.423  0.00  0.00    -0.012 A 
ATOM     10  C14 CHE B   08     16.673  67.358   5.030  0.00  0.00    +0.011 A 
ATOM     11  C15 CHE B   08     20.959  69.502   6.633  0.00  0.00    +0.028 A 
ATOM     12  C16 CHE B   08     17.762  68.642   4.236  0.00  0.00    +0.066 A 
ATOM     13  N3  CHE B   08     17.894  69.129   3.602  0.00  0.00    -0.344 N 
ATOM     14  C17 CHE B   08     18.825  69.830   3.567  0.00  0.00    +0.197 A 
ATOM     15  N4  CHE B   08     16.251  68.537   2.615  0.00  0.00    -0.236 NA
ATOM     16  C18 CHE B   08     21.944  70.401   6.340  0.00  0.00    +0.089 A 
ATOM     17  C19 CHE B   08     18.494  68.611   5.156  0.00  0.00    +0.038 A 
ATOM     18  H15 CHE B   08     20.420  70.248   4.781  0.00  0.00    +0.167 HD
ENDBRANCH   8   9
BRANCH   1  24
ATOM     19  C1  CHE B   08     15.233  67.868   8.760  0.00  0.00    +0.065 C 
ATOM     20  C2  CHE B   08     16.240  68.210   8.934  0.00  0.00    +0.039 A 
ATOM     21  C3  CHE B   08     16.765  68.529   9.869  0.00  0.00    +0.023 A 
ATOM     22  C4  CHE B   08     15.399  67.876   8.499  0.00  0.00    +0.004 A 
ATOM     23  C5  CHE B   08     14.280  67.234   6.740  0.00  0.00    +0.030 A 
ATOM     24  C6  CHE B   08     16.908  68.241   7.879  0.00  0.00    +0.092 A 
ATOM     25  N5  CHE B   08     20.651  69.890  10.784  0.00  0.00    -0.250 NA
ENDBRANCH   1  24
TORSDOF 2
ENDMDL
MODEL 7
REMARK VINA RESULT:      -8.6      2.755      5.968
REMARK  Name = dock_mp/CHEMBL3/CHEMBL382838.pdb
REMARK  3 active torsions:
REMARK  status: ('A' for Active; 'I' for Inactive)
REMARK    1  A    between atoms: C1_1  and  C2_2
REMARK    2  A    between atoms: C6_6  and  C7_7
REMARK    3  A    between atoms: C12_14  and  C13_15
REMARK                            x       y       z     vdW  Elec       q    Type
REMARK                         _______ _______ _______ _____ _____    ______ ____
ROOT
ATOM      1  C7  CHE B   08     19.202  68.867   8.216  0.00  0.00    +0.119 A 
ATOM      2  N1  CHE B   08     17.910  68.457  11.993  0.00  0.00    -0.169 NA
ATOM      3  N2  CHE B   08     17.343  68.800  10.686  0.00  0.00    -0.267 N 
ATOM      4  C8  CHE B   08     17.801  69.056   8.721  0.00  0.00    +0.144 C 
ATOM      5  C9  CHE B   08     16.463  69.418   8.176  0.00  0.00    +0.029 C 
ATOM      6  C10 CHE B   08     16.049  69.530   8.008  0.00  0.00    +0.057 C 
ATOM      7  C11 CHE B   08     17.558  69.312   7.547  0.00  0.00    +0.048 A 
ATOM      8  C12 CHE B   08     17.972  69.200   7.715  0.00  0.00    +0.032 A 
ENDROOT
BRANCH   8   9
ATOM      9  C13 CHE B   08     18.833  69.727   3.763  0.00  0.00    -0.012 A 
ATOM     10  C14 CHE B   08     16.590  67.405  11.083  0.00  0.00    +0.011 A 
ATOM     11  C15 CHE B   08     17.761  68.294   6.249  0.00  0.00    +0.028 A 
ATOM     12  C16 CHE B   08     16.326  66.371   9.558  0.00  0.00    +0.066 A 
ATOM     13  N3  CHE B   08     16.043  65.682   9.241  0.00  0.00    -0.344 N 
ATOM     14  C17 CHE B   08     16.119  65.473   8.096  0.00  0.00    +0.197 A 
ATOM     15  N4  CHE B   08     15.421  64.950  11.001  0.00  0.00    -0.236 NA
ATOM     16  C18 CHE B   08     17.721  67.804   4.974  0.00  0.00    +0.089 A 
ATOM     17  C19 CHE B   08     16.828  67.201   8.891  0.00  0.00    +0.038 A 
ATOM     18  H15 CHE B   08     16.843  66.451   6.449  0.00  0.00    +0.167 HD
ENDBRANCH   8   9
BRANCH   1  24
ATOM     19  C1  CHE B   08     20.265  68.602  12.011  0.00  0.00    +0.065 C 
ATOM     20  C2  CHE B   08     20.298  68.813  10.956  0.00  0.00    +0.039 A 
ATOM     21  C3  CHE B   08     21.093  69.265  10.313  0.00  0.00    +0.023 A 
ATOM     22  C4  CHE B   08     20.003  68.519  11.869  0.00  0.00    +0.004 A 
ATOM     23  C5  CHE B   08     18.522  67.650  13.215  0.00  0.00    +0.030 A 
ATOM     24  C6  CHE B   08     19.239  68.478  10.383  0.00  0.00    +0.092 A 
ATOM     25  N5  CHE B   08     21.444  70.178   6.209  0.00  0.00    -0.250 NA
ENDBRANCH   1  24
TORSDOF 2
ENDMDL
MODEL 8
REMARK VINA RESULT:      -8.5      4.045      6.720
REMARK  Name = dock_mp/CHEMBL3/CHEMBL382838.pdb
REMARK  3 active torsions:
REMARK  status: ('A' for Active; 'I' for Inactive)
REMARK    1  A    between atoms: C1_1  and  C2_2
REMARK    2  A    between atoms: C6_6  and  C7_7
REMARK    3  A    between atoms: C12_14  and  C13_15
REMARK                            x       y       z     vdW  Elec       q    Type
REMARK                         _______ _______ _______ _____ _____    ______ ____
ROOT
ATOM      1  C7  CHE B   08     20.244  68.832   9.473  0.00  0.00    +0.119 A 
ATOM      2  N1  CHE B   08     21.664  70.043   5.921  0.00  0.00    -0.169 NA
ATOM      3  N2  CHE B   08     21.868  70.365   7.335  0.00  0.00    -0.267 N 
ATOM      4  C8  CHE B   08     21.277  69.893   9.223  0.00  0.00    +0.144 C 
ATOM      5  C9  CHE B   08     22.118  70.834  10.014  0.00  0.00    +0.029 C 
ATOM      6  C10 CHE B   08     22.378  71.125  10.258  0.00  0.00    +0.057 C 
ATOM      7  C11 CHE B   08     21.278  69.988  10.445  0.00  0.00    +0.048 A 
ATOM      8  C12 CHE B   08     21.018  69.698  10.201  0.00  0.00    +0.032 A 
ENDROOT
BRANCH   8   9
ATOM      9  C13 CHE B   08     19.869  68.791  14.008  0.00  0.00    -0.012 A 
ATOM     10  C14 CHE B   08     23.299  69.748   6.844  0.00  0.00    +0.011 A 
ATOM     11  C15 CHE B   08     21.658  68.769  11.522  0.00  0.00    +0.028 A 
ATOM     12  C16 CHE B   08     24.054  68.733   8.210  0.00  0.00    +0.066 A 
ATOM     13  N3  CHE B   08     24.669  68.268   8.455  0.00  0.00    -0.344 N 
ATOM     14  C17 CHE B   08     24.686  67.811   9.528  0.00  0.00    +0.197 A 
ATOM     15  N4  CHE B   08     25.662  68.405   6.718  0.00  0.00    -0.236 NA
ATOM     16  C18 CHE B   08     21.926  68.123  12.695  0.00  0.00    +0.089 A 
ATOM     17  C19 CHE B   08     23.143  68.978   8.914  0.00  0.00    +0.038 A 
ATOM     18  H15 CHE B   08     23.473  67.840  11.178  0.00  0.00    +0.167 HD
ENDBRANCH   8   9
BRANCH   1  24
ATOM     19  C1  CHE B   08     19.862  68.419   5.563  0.00  0.00    +0.065 C 
ATOM     20  C2  CHE B   08     19.681  68.326   6.621  0.00  0.00    +0.039 A 
ATOM     21  C3  CHE B   08     18.892  67.780   7.195  0.00  0.00    +0.023 A 
ATOM     22  C4  CHE B   08     20.071  68.576   5.730  0.00  0.00    +0.004 A 
ATOM     23  C5  CHE B   08     21.561  69.604   4.513  0.00  0.00    +0.030 A 
ATOM     24  C6  CHE B   08     20.525  68.957   7.294  0.00  0.00    +0.092 A 
ATOM     25  N5  CHE B   08     17.993  67.277  11.285  0.00  0.00    -0.250 NA
ENDBRANCH   1  24
TORSDOF 2
ENDMDL
MODEL 9
REMARK VINA RESULT:      -8.4      2.856      7.501
REMARK  Name = dock_mp/CHEMBL3/CHEMBL382838.pdb
REMARK  3 active torsions:
REMARK  status: ('A' for Active; 'I' for Inactive)
REMARK    1  A    between atoms: C1_1  and  C2_2
REMARK    2  A    between atoms: C6_6  and  C7_7
REMARK    3  A    between atoms: C12_14  and  C13_15
REMARK                            x       y       z     vdW  Elec       q    Type
REMARK                         _______ _______ _______ _____ _____    ______ ____
ROOT
ATOM      1  C7  CHE B   08     17.843  68.024   9.128  0.00  0.00    +0.119 A 
ATOM      2  N1  CHE B   08     20.973  68.131  11.637  0.00  0.00    -0.169 NA
ATOM      3  N2  CHE B   08     20.686  67.649  10.284  0.00  0.00    -0.267 N 
ATOM      4  C8  CHE B   08     19.227  67.499   8.875  0.00  0.00    +0.144 C 
ATOM      5  C9  CHE B   08     19.973  66.814   7.783  0.00  0.00    +0.029 C 
ATOM      6  C10 CHE B   08     20.204  66.602   7.446  0.00  0.00    +0.057 C 
ATOM      7  C11 CHE B   08     18.760  67.183   7.786  0.00  0.00    +0.048 A 
ATOM      8  C12 CHE B   08     18.529  67.394   8.123  0.00  0.00    +0.032 A 
ENDROOT
BRANCH   8   9
ATOM      9  C13 CHE B   08     15.640  67.067   5.262  0.00  0.00    -0.012 A 
ATOM     10  C14 CHE B   08     21.859  68.755  10.005  0.00  0.00    +0.011 A 
ATOM     11  C15 CHE B   08     18.167  68.159   6.606  0.00  0.00    +0.028 A 
ATOM     12  C16 CHE B   08     21.541  69.623   8.390  0.00  0.00    +0.066 A 
ATOM     13  N3  CHE B   08     21.780  70.185   7.858  0.00  0.00    -0.344 N 
ATOM     14  C17 CHE B   08     21.176  70.380   6.879  0.00  0.00    +0.197 A 
ATOM     15  N4  CHE B   08     23.387  70.730   8.927  0.00  0.00    -0.236 NA
ATOM     16  C18 CHE B   08     17.661  68.583   5.411  0.00  0.00    +0.089 A 
ATOM     17  C19 CHE B   08     20.576  68.973   8.213  0.00  0.00    +0.038 A 
ATOM     18  H15 CHE B   08     19.483  69.634   6.001  0.00  0.00    +0.167 HD
ENDBRANCH   8   9
BRANCH   1  24
ATOM     19  C1  CHE B   08     18.978  68.764  12.838  0.00  0.00    +0.065 C 
ATOM     20  C2  CHE B   08     18.353  68.569  11.983  0.00  0.00    +0.039 A 
ATOM     21  C3  CHE B   08     17.244  68.477  11.878  0.00  0.00    +0.023 A 
ATOM     22  C4  CHE B   08     19.145  68.728  12.580  0.00  0.00    +0.004 A 
ATOM     23  C5  CHE B   08     21.293  68.928  12.897  0.00  0.00    +0.030 A 
ATOM     24  C6  CHE B   08     19.027  68.427  10.939  0.00  0.00    +0.092 A 
ATOM     25  N5  CHE B   08     14.607  67.729   8.672  0.00  0.00    -0.250 NA
ENDBRANCH   1  24
TORSDOF 2
ENDMDL
MODEL 10
REMARK VINA RESULT:      -8.2      1.849      4.923
REMARK  Name = dock_mp/CHEMBL3/CHEMBL382838.pdb
REMARK  3 active torsions:
REMARK  status: ('A' for Active; 'I' for Inactive)
REMARK    1  A    between atoms: C1_1  and  C2_2
REMARK    2  A    between atoms: C6_6  and  C7_7
REMARK    3  A    between atoms: C12_14  and  C13_15
REMARK                            x       y       z     vdW  Elec       q    Type
REMARK                         _______ _______ _______ _____ _____    ______ ____
ROOT
ATOM      1  C7  CHE B   08     17.887  67.861   5.691  0.00  0.00    +0.119 A 
ATOM      2  N1  CHE B   08     20.702  70.489   6.819  0.00  0.00    -0.169 NA
ATOM      3  N2  CHE B   08     19.319  70.163   7.177  0.00  0.00    -0.267 N 
ATOM      4  C8  CHE B   08     17.768  68.920   6.749  0.00  0.00    +0.144 C 
ATOM      5  C9  CHE B   08     16.747  69.418   7.712  0.00  0.00    +0.029 C 
ATOM      6  C10 CHE B   08     16.432  69.572   8.010  0.00  0.00    +0.057 C 
ATOM      7  C11 CHE B   08     16.633  68.473   6.874  0.00  0.00    +0.048 A 
ATOM      8  C12 CHE B   08     16.948  68.319   6.577  0.00  0.00    +0.032 A 
ENDROOT
BRANCH   8   9
ATOM      9  C13 CHE B   08     13.804  65.852   5.759  0.00  0.00    -0.012 A 
ATOM     10  C14 CHE B   08     20.153  69.844   8.546  0.00  0.00    +0.011 A 
ATOM     11  C15 CHE B   08     16.212  66.930   7.315  0.00  0.00    +0.028 A 
ATOM     12  C16 CHE B   08     19.424  68.360   9.401  0.00  0.00    +0.066 A 
ATOM     13  N3  CHE B   08     19.457  67.847  10.027  0.00  0.00    -0.344 N 
ATOM     14  C17 CHE B   08     18.687  66.977  10.132  0.00  0.00    +0.197 A 
ATOM     15  N4  CHE B   08     21.051  68.733  10.861  0.00  0.00    -0.236 NA
ATOM     16  C18 CHE B   08     15.456  65.852   7.675  0.00  0.00    +0.089 A 
ATOM     17  C19 CHE B   08     18.604  68.262   8.563  0.00  0.00    +0.038 A 
ATOM     18  H15 CHE B   08     17.081  66.275   9.074  0.00  0.00    +0.167 HD
ENDBRANCH   8   9
BRANCH   1  24
ATOM     19  C1  CHE B   08     21.274  69.656   4.737  0.00  0.00    +0.065 C 
ATOM     20  C2  CHE B   08     20.335  69.137   4.647  0.00  0.00    +0.039 A 
ATOM     21  C3  CHE B   08     19.770  68.773   3.754  0.00  0.00    +0.023 A 
ATOM     22  C4  CHE B   08     21.145  69.602   5.014  0.00  0.00    +0.004 A 
ATOM     23  C5  CHE B   08     22.329  70.353   6.685  0.00  0.00    +0.030 A 
ATOM     24  C6  CHE B   08     19.815  68.920   5.763  0.00  0.00    +0.092 A 
ATOM     25  N5  CHE B   08     16.121  66.740   3.162  0.00  0.00    -0.250 NA
ENDBRANCH   1  24
TORSDOF 2
ENDMDL
