MODEL 1
REMARK VINA RESULT:      -9.6      0.000      0.000
REMARK  Name = dock_mp/CHEMBL3/CHEMBL365663.pdb
REMARK  2 active torsions:
REMARK  status: ('A' for Active; 'I' for Inactive)
REMARK    1  A    between atoms: C2_4  and  C3_5
REMARK    2  A    between atoms: C9_12  and  C10_13
REMARK                            x       y       z     vdW  Elec       q    Type
REMARK                         _______ _______ _______ _____ _____    ______ ____
ROOT
ATOM      1  N1  CHE B   06     12.780  64.870   4.277  0.00  0.00    -0.337 N 
ATOM      2  C1  CHE B   06     15.438  67.744   8.869  0.00  0.00    +0.157 A 
ATOM      3  N2  CHE B   06     13.733  65.873   5.754  0.00  0.00    -0.224 NA
ATOM      4  C2  CHE B   06     14.238  66.213   5.351  0.00  0.00    +0.089 A 
ATOM      5  C9  CHE B   06     15.151  66.827   4.622  0.00  0.00    +0.067 A 
ATOM      6  S1  CHE B   06     15.213  66.869   4.572  0.00  0.00    -0.050 S 
ATOM      7  H1  CHE B   06     13.793  66.276   7.944  0.00  0.00    +0.144 HD
ATOM      8  H2  CHE B   06     15.906  68.421  10.733  0.00  0.00    +0.144 HD
ENDROOT
BRANCH   5   9
ATOM      9  C10 CHE B   06     15.953  67.367   3.981  0.00  0.00    +0.081 A 
ATOM     10  C11 CHE B   06     19.339  68.320   8.844  0.00  0.00    +0.031 A 
ATOM     11  C12 CHE B   06     17.378  68.104   4.105  0.00  0.00    +0.032 A 
ATOM     12  C13 CHE B   06     20.301  69.188   6.815  0.00  0.00    +0.089 A 
ATOM     13  N3  CHE B   06     21.089  69.718   6.185  0.00  0.00    -0.253 NA
ATOM     14  C14 CHE B   06     19.557  69.570   2.366  0.00  0.00    +0.111 A 
ATOM     15  C15 CHE B   06     22.790  70.421   7.349  0.00  0.00    +0.022 A 
ATOM     16  C16 CHE B   06     21.980  69.876   7.996  0.00  0.00    +0.031 A 
ATOM     17  C17 CHE B   06     17.986  68.514   3.619  0.00  0.00    +0.090 A 
ATOM     18  N4  CHE B   06     18.870  68.446   6.696  0.00  0.00    -0.245 NA
ENDBRANCH   5   9
BRANCH   4  19
ATOM     19  C3  CHE B   06     15.717  68.113   9.765  0.00  0.00    +0.003 A 
ATOM     20  C4  CHE B   06     14.791  67.019   7.102  0.00  0.00    +0.010 A 
ATOM     21  C5  CHE B   06     15.380  67.044   8.097  0.00  0.00    +0.002 A 
ATOM     22  C6  CHE B   06     15.038  64.500   4.888  0.00  0.00    +0.020 A 
ATOM     23  C7  CHE B   06     15.043  63.755   4.120  0.00  0.00    +0.042 A 
ATOM     24 CL1  CHE B   06     17.141  65.642   9.540  0.00  0.00    -0.084 Cl
ATOM     25  C8  CHE B   06     14.691  64.183   3.985  0.00  0.00    +0.030 A 
ENDBRANCH   4  19
TORSDOF 2
ENDMDL
MODEL 2
REMARK VINA RESULT:      -8.9      3.660      5.894
REMARK  Name = dock_mp/CHEMBL3/CHEMBL365663.pdb
REMARK  2 active torsions:
REMARK  status: ('A' for Active; 'I' for Inactive)
REMARK    1  A    between atoms: C2_4  and  C3_5
REMARK    2  A    between atoms: C9_12  and  C10_13
REMARK                            x       y       z     vdW  Elec       q    Type
REMARK                         _______ _______ _______ _____ _____    ______ ____
ROOT
ATOM      1  N1  CHE B   06     15.315  67.095   7.653  0.00  0.00    -0.337 N 
ATOM      2  C1  CHE B   06     17.761  68.351   2.282  0.00  0.00    +0.157 A 
ATOM      3  N2  CHE B   06     16.222  67.515   5.893  0.00  0.00    -0.224 NA
ATOM      4  C2  CHE B   06     16.914  67.523   6.124  0.00  0.00    +0.089 A 
ATOM      5  C9  CHE B   06     18.167  67.539   6.540  0.00  0.00    +0.067 A 
ATOM      6  S1  CHE B   06     18.252  67.540   6.569  0.00  0.00    -0.050 S 
ATOM      7  H1  CHE B   06     15.905  67.920   3.726  0.00  0.00    +0.144 HD
ATOM      8  H2  CHE B   06     18.004  68.763   0.301  0.00  0.00    +0.144 HD
ENDROOT
BRANCH   5   9
ATOM      9  C10 CHE B   06     19.267  67.553   6.907  0.00  0.00    +0.081 A 
ATOM     10  C11 CHE B   06     17.479  68.468  12.561  0.00  0.00    +0.031 A 
ATOM     11  C12 CHE B   06     20.149  67.720   8.242  0.00  0.00    +0.032 A 
ATOM     12  C13 CHE B   06     19.871  68.342  12.316  0.00  0.00    +0.089 A 
ATOM     13  N3  CHE B   06     20.953  68.355  12.675  0.00  0.00    -0.253 NA
ATOM     14  C14 CHE B   06     23.138  67.757   9.236  0.00  0.00    +0.111 A 
ATOM     15  C15 CHE B   06     21.141  68.670  14.821  0.00  0.00    +0.022 A 
ATOM     16  C16 CHE B   06     20.031  68.656  14.452  0.00  0.00    +0.031 A 
ATOM     17  C17 CHE B   06     20.984  67.730   8.519  0.00  0.00    +0.090 A 
ATOM     18  N4  CHE B   06     18.980  68.174  10.977  0.00  0.00    -0.245 NA
ENDBRANCH   5   9
BRANCH   4  19
ATOM     19  C3  CHE B   06     17.944  68.558   1.312  0.00  0.00    +0.003 A 
ATOM     20  C4  CHE B   06     17.334  67.876   4.194  0.00  0.00    +0.010 A 
ATOM     21  C5  CHE B   06     17.477  68.551   3.267  0.00  0.00    +0.002 A 
ATOM     22  C6  CHE B   06     16.470  69.071   7.217  0.00  0.00    +0.020 A 
ATOM     23  C7  CHE B   06     16.198  69.345   8.215  0.00  0.00    +0.042 A 
ATOM     24 CL1  CHE B   06     17.363  71.104   2.480  0.00  0.00    -0.084 Cl
ATOM     25  C8  CHE B   06     16.275  68.781   8.173  0.00  0.00    +0.030 A 
ENDBRANCH   4  19
TORSDOF 2
ENDMDL
MODEL 3
REMARK VINA RESULT:      -8.8      2.845      5.134
REMARK  Name = dock_mp/CHEMBL3/CHEMBL365663.pdb
REMARK  2 active torsions:
REMARK  status: ('A' for Active; 'I' for Inactive)
REMARK    1  A    between atoms: C2_4  and  C3_5
REMARK    2  A    between atoms: C9_12  and  C10_13
REMARK                            x       y       z     vdW  Elec       q    Type
REMARK                         _______ _______ _______ _____ _____    ______ ____
ROOT
ATOM      1  N1  CHE B   06     15.039  68.428   9.860  0.00  0.00    -0.337 N 
ATOM      2  C1  CHE B   06     16.045  68.058   3.922  0.00  0.00    +0.157 A 
ATOM      3  N2  CHE B   06     15.470  68.315   7.885  0.00  0.00    -0.224 NA
ATOM      4  C2  CHE B   06     16.195  68.389   7.925  0.00  0.00    +0.089 A 
ATOM      5  C9  CHE B   06     17.506  68.524   7.997  0.00  0.00    +0.067 A 
ATOM      6  S1  CHE B   06     17.596  68.533   8.002  0.00  0.00    -0.050 S 
ATOM      7  H1  CHE B   06     14.620  68.070   5.841  0.00  0.00    +0.144 HD
ATOM      8  H2  CHE B   06     15.781  67.873   1.910  0.00  0.00    +0.144 HD
ENDROOT
BRANCH   5   9
ATOM      9  C10 CHE B   06     18.659  68.642   8.060  0.00  0.00    +0.081 A 
ATOM     10  C11 CHE B   06     19.013  69.339   2.110  0.00  0.00    +0.031 A 
ATOM     11  C12 CHE B   06     19.953  68.885   7.135  0.00  0.00    +0.032 A 
ATOM     12  C13 CHE B   06     21.146  69.448   3.221  0.00  0.00    +0.089 A 
ATOM     13  N3  CHE B   06     22.278  69.564   3.283  0.00  0.00    -0.253 NA
ATOM     14  C14 CHE B   06     23.082  69.206   7.306  0.00  0.00    +0.111 A 
ATOM     15  C15 CHE B   06     23.217  69.881   1.345  0.00  0.00    +0.022 A 
ATOM     16  C16 CHE B   06     22.055  69.762   1.281  0.00  0.00    +0.031 A 
ATOM     17  C17 CHE B   06     20.827  68.975   7.183  0.00  0.00    +0.090 A 
ATOM     18  N4  CHE B   06     19.842  69.204   4.145  0.00  0.00    -0.245 NA
ENDBRANCH   5   9
BRANCH   4  19
ATOM     19  C3  CHE B   06     15.978  67.972   2.919  0.00  0.00    +0.003 A 
ATOM     20  C4  CHE B   06     16.117  68.284   5.924  0.00  0.00    +0.010 A 
ATOM     21  C5  CHE B   06     16.006  67.731   4.914  0.00  0.00    +0.002 A 
ATOM     22  C6  CHE B   06     15.983  66.715   8.896  0.00  0.00    +0.020 A 
ATOM     23  C7  CHE B   06     15.957  66.318   9.888  0.00  0.00    +0.042 A 
ATOM     24 CL1  CHE B   06     15.620  65.299   3.872  0.00  0.00    -0.084 Cl
ATOM     25  C8  CHE B   06     16.039  66.882   9.898  0.00  0.00    +0.030 A 
ENDBRANCH   4  19
TORSDOF 2
ENDMDL
MODEL 4
REMARK VINA RESULT:      -8.7      2.348      4.284
REMARK  Name = dock_mp/CHEMBL3/CHEMBL365663.pdb
REMARK  2 active torsions:
REMARK  status: ('A' for Active; 'I' for Inactive)
REMARK    1  A    between atoms: C2_4  and  C3_5
REMARK    2  A    between atoms: C9_12  and  C10_13
REMARK                            x       y       z     vdW  Elec       q    Type
REMARK                         _______ _______ _______ _____ _____    ______ ____
ROOT
ATOM      1  N1  CHE B   06     13.676  63.205   4.400  0.00  0.00    -0.337 N 
ATOM      2  C1  CHE B   06     17.359  67.814   3.137  0.00  0.00    +0.157 A 
ATOM      3  N2  CHE B   06     14.914  64.771   4.070  0.00  0.00    -0.224 NA
ATOM      4  C2  CHE B   06     14.993  64.999   4.760  0.00  0.00    +0.089 A 
ATOM      5  C9  CHE B   06     15.135  65.410   6.006  0.00  0.00    +0.067 A 
ATOM      6  S1  CHE B   06     15.144  65.438   6.091  0.00  0.00    -0.050 S 
ATOM      7  H1  CHE B   06     16.013  65.936   2.523  0.00  0.00    +0.144 HD
ATOM      8  H2  CHE B   06     18.522  69.162   2.146  0.00  0.00    +0.144 HD
ENDROOT
BRANCH   5   9
ATOM      9  C10 CHE B   06     15.259  65.772   7.101  0.00  0.00    +0.081 A 
ATOM     10  C11 CHE B   06     20.356  68.608   5.689  0.00  0.00    +0.031 A 
ATOM     11  C12 CHE B   06     16.242  66.632   8.039  0.00  0.00    +0.032 A 
ATOM     12  C13 CHE B   06     19.744  68.823   8.008  0.00  0.00    +0.089 A 
ATOM     13  N3  CHE B   06     19.866  69.179   9.084  0.00  0.00    -0.253 NA
ATOM     14  C14 CHE B   06     16.581  67.614  11.013  0.00  0.00    +0.111 A 
ATOM     15  C15 CHE B   06     21.654  70.382   9.394  0.00  0.00    +0.022 A 
ATOM     16  C16 CHE B   06     21.528  70.017   8.290  0.00  0.00    +0.031 A 
ATOM     17  C17 CHE B   06     16.337  66.907   8.870  0.00  0.00    +0.090 A 
ATOM     18  N4  CHE B   06     18.759  67.960   7.060  0.00  0.00    -0.245 NA
ENDBRANCH   5   9
BRANCH   4  19
ATOM     19  C3  CHE B   06     17.948  68.508   2.703  0.00  0.00    +0.003 A 
ATOM     20  C4  CHE B   06     16.220  66.369   3.961  0.00  0.00    +0.010 A 
ATOM     21  C5  CHE B   06     16.460  67.330   3.364  0.00  0.00    +0.002 A 
ATOM     22  C6  CHE B   06     13.085  65.267   4.477  0.00  0.00    +0.020 A 
ATOM     23  C7  CHE B   06     12.134  64.830   4.699  0.00  0.00    +0.042 A 
ATOM     24 CL1  CHE B   06     15.292  69.328   2.026  0.00  0.00    -0.084 Cl
ATOM     25  C8  CHE B   06     12.557  64.519   4.921  0.00  0.00    +0.030 A 
ENDBRANCH   4  19
TORSDOF 2
ENDMDL
MODEL 5
REMARK VINA RESULT:      -8.6      2.406      3.990
REMARK  Name = dock_mp/CHEMBL3/CHEMBL365663.pdb
REMARK  2 active torsions:
REMARK  status: ('A' for Active; 'I' for Inactive)
REMARK    1  A    between atoms: C2_4  and  C3_5
REMARK    2  A    between atoms: C9_12  and  C10_13
REMARK                            x       y       z     vdW  Elec       q    Type
REMARK                         _______ _______ _______ _____ _____    ______ ____
ROOT
ATOM      1  N1  CHE B   06     16.192  66.156   8.397  0.00  0.00    -0.337 N 
ATOM      2  C1  CHE B   06     12.569  63.663   4.266  0.00  0.00    +0.157 A 
ATOM      3  N2  CHE B   06     15.018  65.376   6.945  0.00  0.00    -0.224 NA
ATOM      4  C2  CHE B   06     15.271  65.760   6.378  0.00  0.00    +0.089 A 
ATOM      5  C9  CHE B   06     15.728  66.455   5.353  0.00  0.00    +0.067 A 
ATOM      6  S1  CHE B   06     15.759  66.503   5.283  0.00  0.00    -0.050 S 
ATOM      7  H1  CHE B   06     13.397  63.917   6.495  0.00  0.00    +0.144 HD
ATOM      8  H2  CHE B   06     11.152  62.514   3.358  0.00  0.00    +0.144 HD
ENDROOT
BRANCH   5   9
ATOM      9  C10 CHE B   06     16.130  67.066   4.453  0.00  0.00    +0.081 A 
ATOM     10  C11 CHE B   06     21.178  68.337   7.438  0.00  0.00    +0.031 A 
ATOM     11  C12 CHE B   06     17.402  67.932   3.985  0.00  0.00    +0.032 A 
ATOM     12  C13 CHE B   06     21.101  69.287   5.227  0.00  0.00    +0.089 A 
ATOM     13  N3  CHE B   06     21.496  69.887   4.341  0.00  0.00    -0.253 NA
ATOM     14  C14 CHE B   06     18.493  69.590   1.539  0.00  0.00    +0.111 A 
ATOM     15  C15 CHE B   06     23.465  70.746   4.695  0.00  0.00    +0.022 A 
ATOM     16  C16 CHE B   06     23.060  70.130   5.603  0.00  0.00    +0.031 A 
ATOM     17  C17 CHE B   06     17.707  68.395   3.301  0.00  0.00    +0.090 A 
ATOM     18  N4  CHE B   06     19.826  68.415   5.702  0.00  0.00    -0.245 NA
ENDBRANCH   5   9
BRANCH   4  19
ATOM     19  C3  CHE B   06     11.883  63.123   3.762  0.00  0.00    +0.003 A 
ATOM     20  C4  CHE B   06     13.965  64.670   5.317  0.00  0.00    +0.010 A 
ATOM     21  C5  CHE B   06     12.915  64.415   4.904  0.00  0.00    +0.002 A 
ATOM     22  C6  CHE B   06     14.556  67.311   7.314  0.00  0.00    +0.020 A 
ATOM     23  C7  CHE B   06     14.853  68.118   7.950  0.00  0.00    +0.042 A 
ATOM     24 CL1  CHE B   06     10.377  65.255   4.931  0.00  0.00    -0.084 Cl
ATOM     25  C8  CHE B   06     15.300  67.790   7.817  0.00  0.00    +0.030 A 
ENDBRANCH   4  19
TORSDOF 2
ENDMDL
MODEL 6
REMARK VINA RESULT:      -8.4      3.509      5.365
REMARK  Name = dock_mp/CHEMBL3/CHEMBL365663.pdb
REMARK  2 active torsions:
REMARK  status: ('A' for Active; 'I' for Inactive)
REMARK    1  A    between atoms: C2_4  and  C3_5
REMARK    2  A    between atoms: C9_12  and  C10_13
REMARK                            x       y       z     vdW  Elec       q    Type
REMARK                         _______ _______ _______ _____ _____    ______ ____
ROOT
ATOM      1  N1  CHE B   06     15.878  68.365  10.006  0.00  0.00    -0.337 N 
ATOM      2  C1  CHE B   06     15.494  67.971   3.998  0.00  0.00    +0.157 A 
ATOM      3  N2  CHE B   06     15.844  68.250   7.986  0.00  0.00    -0.224 NA
ATOM      4  C2  CHE B   06     16.551  68.373   7.855  0.00  0.00    +0.089 A 
ATOM      5  C9  CHE B   06     17.831  68.597   7.618  0.00  0.00    +0.067 A 
ATOM      6  S1  CHE B   06     17.918  68.612   7.602  0.00  0.00    -0.050 S 
ATOM      7  H1  CHE B   06     14.559  67.917   6.197  0.00  0.00    +0.144 HD
ATOM      8  H2  CHE B   06     14.781  67.738   2.103  0.00  0.00    +0.144 HD
ENDROOT
BRANCH   5   9
ATOM      9  C10 CHE B   06     18.955  68.793   7.410  0.00  0.00    +0.081 A 
ATOM     10  C11 CHE B   06     20.192  68.521  13.275  0.00  0.00    +0.031 A 
ATOM     11  C12 CHE B   06     20.366  68.958   8.164  0.00  0.00    +0.032 A 
ATOM     12  C13 CHE B   06     22.124  68.940  11.902  0.00  0.00    +0.089 A 
ATOM     13  N3  CHE B   06     23.229  69.132  11.697  0.00  0.00    -0.253 NA
ATOM     14  C14 CHE B   06     23.419  69.490   7.599  0.00  0.00    +0.111 A 
ATOM     15  C15 CHE B   06     24.443  69.182  13.504  0.00  0.00    +0.022 A 
ATOM     16  C16 CHE B   06     23.309  68.984  13.714  0.00  0.00    +0.031 A 
ATOM     17  C17 CHE B   06     21.219  69.107   8.006  0.00  0.00    +0.090 A 
ATOM     18  N4  CHE B   06     20.703  68.773  11.149  0.00  0.00    -0.245 NA
ENDBRANCH   5   9
BRANCH   4  19
ATOM     19  C3  CHE B   06     15.201  67.866   3.039  0.00  0.00    +0.003 A 
ATOM     20  C4  CHE B   06     16.012  68.232   5.928  0.00  0.00    +0.010 A 
ATOM     21  C5  CHE B   06     15.731  67.657   4.966  0.00  0.00    +0.002 A 
ATOM     22  C6  CHE B   06     16.781  66.699   8.821  0.00  0.00    +0.020 A 
ATOM     23  C7  CHE B   06     17.040  66.315   9.786  0.00  0.00    +0.042 A 
ATOM     24 CL1  CHE B   06     15.407  65.182   4.007  0.00  0.00    -0.084 Cl
ATOM     25  C8  CHE B   06     17.053  66.885   9.785  0.00  0.00    +0.030 A 
ENDBRANCH   4  19
TORSDOF 2
ENDMDL
MODEL 7
REMARK VINA RESULT:      -8.3      3.478      8.395
REMARK  Name = dock_mp/CHEMBL3/CHEMBL365663.pdb
REMARK  2 active torsions:
REMARK  status: ('A' for Active; 'I' for Inactive)
REMARK    1  A    between atoms: C2_4  and  C3_5
REMARK    2  A    between atoms: C9_12  and  C10_13
REMARK                            x       y       z     vdW  Elec       q    Type
REMARK                         _______ _______ _______ _____ _____    ______ ____
ROOT
ATOM      1  N1  CHE B   06     21.633  70.969  10.368  0.00  0.00    -0.337 N 
ATOM      2  C1  CHE B   06     26.395  69.278   7.071  0.00  0.00    +0.157 A 
ATOM      3  N2  CHE B   06     23.173  70.398   9.185  0.00  0.00    -0.224 NA
ATOM      4  C2  CHE B   06     22.813  70.344   8.552  0.00  0.00    +0.089 A 
ATOM      5  C9  CHE B   06     22.164  70.247   7.407  0.00  0.00    +0.067 A 
ATOM      6  S1  CHE B   06     22.119  70.241   7.329  0.00  0.00    -0.050 S 
ATOM      7  H1  CHE B   06     25.347  69.922   9.121  0.00  0.00    +0.144 HD
ATOM      8  H2  CHE B   06     28.280  68.759   6.495  0.00  0.00    +0.144 HD
ENDROOT
BRANCH   5   9
ATOM      9  C10 CHE B   06     21.593  70.162   6.401  0.00  0.00    +0.081 A 
ATOM     10  C11 CHE B   06     17.405  66.705   8.954  0.00  0.00    +0.031 A 
ATOM     11  C12 CHE B   06     20.283  69.494   5.748  0.00  0.00    +0.032 A 
ATOM     12  C13 CHE B   06     17.017  67.119   6.615  0.00  0.00    +0.089 A 
ATOM     13  N3  CHE B   06     16.456  67.035   5.626  0.00  0.00    -0.253 NA
ATOM     14  C14 CHE B   06     18.733  69.263   3.015  0.00  0.00    +0.111 A 
ATOM     15  C15 CHE B   06     14.653  65.822   5.760  0.00  0.00    +0.022 A 
ATOM     16  C16 CHE B   06     15.229  65.908   6.775  0.00  0.00    +0.031 A 
ATOM     17  C17 CHE B   06     19.850  69.430   4.984  0.00  0.00    +0.090 A 
ATOM     18  N4  CHE B   06     18.332  67.787   7.276  0.00  0.00    -0.245 NA
ENDBRANCH   5   9
BRANCH   4  19
ATOM     19  C3  CHE B   06     27.305  69.014   6.727  0.00  0.00    +0.003 A 
ATOM     20  C4  CHE B   06     24.614  69.872   7.806  0.00  0.00    +0.010 A 
ATOM     21  C5  CHE B   06     25.480  69.148   7.558  0.00  0.00    +0.002 A 
ATOM     22  C6  CHE B   06     21.794  68.894   9.355  0.00  0.00    +0.020 A 
ATOM     23  C7  CHE B   06     20.862  68.690   9.840  0.00  0.00    +0.042 A 
ATOM     24 CL1  CHE B   06     26.217  66.587   7.779  0.00  0.00    -0.084 Cl
ATOM     25  C8  CHE B   06     20.901  69.241   9.699  0.00  0.00    +0.030 A 
ENDBRANCH   4  19
TORSDOF 2
ENDMDL
MODEL 8
REMARK VINA RESULT:      -8.2      2.555      4.192
REMARK  Name = dock_mp/CHEMBL3/CHEMBL365663.pdb
REMARK  2 active torsions:
REMARK  status: ('A' for Active; 'I' for Inactive)
REMARK    1  A    between atoms: C2_4  and  C3_5
REMARK    2  A    between atoms: C9_12  and  C10_13
REMARK                            x       y       z     vdW  Elec       q    Type
REMARK                         _______ _______ _______ _____ _____    ______ ____
ROOT
ATOM      1  N1  CHE B   06     16.107  66.759   9.659  0.00  0.00    -0.337 N 
ATOM      2  C1  CHE B   06     14.106  64.113   4.619  0.00  0.00    +0.157 A 
ATOM      3  N2  CHE B   06     15.501  65.922   7.919  0.00  0.00    -0.224 NA
ATOM      4  C2  CHE B   06     15.958  66.265   7.465  0.00  0.00    +0.089 A 
ATOM      5  C9  CHE B   06     16.785  66.885   6.644  0.00  0.00    +0.067 A 
ATOM      6  S1  CHE B   06     16.842  66.927   6.588  0.00  0.00    -0.050 S 
ATOM      7  H1  CHE B   06     14.086  64.480   6.981  0.00  0.00    +0.144 HD
ATOM      8  H2  CHE B   06     13.061  62.948   3.314  0.00  0.00    +0.144 HD
ENDROOT
BRANCH   5   9
ATOM      9  C10 CHE B   06     17.512  67.429   5.922  0.00  0.00    +0.081 A 
ATOM     10  C11 CHE B   06     21.650  67.851  10.247  0.00  0.00    +0.031 A 
ATOM     11  C12 CHE B   06     18.981  68.083   5.869  0.00  0.00    +0.032 A 
ATOM     12  C13 CHE B   06     22.343  68.817   8.154  0.00  0.00    +0.089 A 
ATOM     13  N3  CHE B   06     23.057  69.352   7.445  0.00  0.00    -0.253 NA
ATOM     14  C14 CHE B   06     20.954  69.562   3.910  0.00  0.00    +0.111 A 
ATOM     15  C15 CHE B   06     24.955  69.880   8.372  0.00  0.00    +0.022 A 
ATOM     16  C16 CHE B   06     24.222  69.331   9.100  0.00  0.00    +0.031 A 
ATOM     17  C17 CHE B   06     19.532  68.496   5.322  0.00  0.00    +0.090 A 
ATOM     18  N4  CHE B   06     20.868  68.158   8.213  0.00  0.00    -0.245 NA
ENDBRANCH   5   9
BRANCH   4  19
ATOM     19  C3  CHE B   06     13.624  63.561   3.926  0.00  0.00    +0.003 A 
ATOM     20  C4  CHE B   06     15.076  65.150   6.050  0.00  0.00    +0.010 A 
ATOM     21  C5  CHE B   06     14.213  64.868   5.335  0.00  0.00    +0.002 A 
ATOM     22  C6  CHE B   06     14.939  67.777   8.145  0.00  0.00    +0.020 A 
ATOM     23  C7  CHE B   06     14.999  68.584   8.845  0.00  0.00    +0.042 A 
ATOM     24 CL1  CHE B   06     11.759  65.627   4.590  0.00  0.00    -0.084 Cl
ATOM     25  C8  CHE B   06     15.476  68.272   8.854  0.00  0.00    +0.030 A 
ENDBRANCH   4  19
TORSDOF 2
ENDMDL
MODEL 9
REMARK VINA RESULT:      -8.0      4.149      7.862
REMARK  Name = dock_mp/CHEMBL3/CHEMBL365663.pdb
REMARK  2 active torsions:
REMARK  status: ('A' for Active; 'I' for Inactive)
REMARK    1  A    between atoms: C2_4  and  C3_5
REMARK    2  A    between atoms: C9_12  and  C10_13
REMARK                            x       y       z     vdW  Elec       q    Type
REMARK                         _______ _______ _______ _____ _____    ______ ____
ROOT
ATOM      1  N1  CHE B   06     21.838  70.291  10.606  0.00  0.00    -0.337 N 
ATOM      2  C1  CHE B   06     20.283  67.010  15.425  0.00  0.00    +0.157 A 
ATOM      3  N2  CHE B   06     21.234  69.169  12.178  0.00  0.00    -0.224 NA
ATOM      4  C2  CHE B   06     20.586  68.955  11.920  0.00  0.00    +0.089 A 
ATOM      5  C9  CHE B   06     19.413  68.568  11.453  0.00  0.00    +0.067 A 
ATOM      6  S1  CHE B   06     19.333  68.541  11.421  0.00  0.00    -0.050 S 
ATOM      7  H1  CHE B   06     21.776  68.425  14.206  0.00  0.00    +0.144 HD
ATOM      8  H2  CHE B   06     20.301  66.093  17.244  0.00  0.00    +0.144 HD
ENDROOT
BRANCH   5   9
ATOM      9  C10 CHE B   06     18.383  68.227  11.043  0.00  0.00    +0.081 A 
ATOM     10  C11 CHE B   06     20.179  69.240   5.408  0.00  0.00    +0.031 A 
ATOM     11  C12 CHE B   06     17.578  68.031   9.664  0.00  0.00    +0.032 A 
ATOM     12  C13 CHE B   06     17.919  68.424   5.567  0.00  0.00    +0.089 A 
ATOM     13  N3  CHE B   06     16.907  68.090   5.164  0.00  0.00    -0.253 NA
ATOM     14  C14 CHE B   06     14.780  67.108   8.551  0.00  0.00    +0.111 A 
ATOM     15  C15 CHE B   06     16.771  68.185   2.993  0.00  0.00    +0.022 A 
ATOM     16  C16 CHE B   06     17.810  68.528   3.407  0.00  0.00    +0.031 A 
ATOM     17  C17 CHE B   06     16.796  67.773   9.353  0.00  0.00    +0.090 A 
ATOM     18  N4  CHE B   06     18.733  68.623   6.949  0.00  0.00    -0.245 NA
ENDBRANCH   5   9
BRANCH   4  19
ATOM     19  C3  CHE B   06     20.234  66.532  16.312  0.00  0.00    +0.003 A 
ATOM     20  C4  CHE B   06     20.414  68.036  13.694  0.00  0.00    +0.010 A 
ATOM     21  C5  CHE B   06     20.583  67.166  14.436  0.00  0.00    +0.002 A 
ATOM     22  C6  CHE B   06     21.555  67.995  10.531  0.00  0.00    +0.020 A 
ATOM     23  C7  CHE B   06     21.871  68.084   9.513  0.00  0.00    +0.042 A 
ATOM     24 CL1  CHE B   06     21.714  64.751  14.633  0.00  0.00    -0.084 Cl
ATOM     25  C8  CHE B   06     21.582  68.548   9.677  0.00  0.00    +0.030 A 
ENDBRANCH   4  19
TORSDOF 2
ENDMDL
MODEL 10
REMARK VINA RESULT:      -7.8      5.761     10.274
REMARK  Name = dock_mp/CHEMBL3/CHEMBL365663.pdb
REMARK  2 active torsions:
REMARK  status: ('A' for Active; 'I' for Inactive)
REMARK    1  A    between atoms: C2_4  and  C3_5
REMARK    2  A    between atoms: C9_12  and  C10_13
REMARK                            x       y       z     vdW  Elec       q    Type
REMARK                         _______ _______ _______ _____ _____    ______ ____
ROOT
ATOM      1  N1  CHE B   06     24.475  69.561   0.612  0.00  0.00    -0.337 N 
ATOM      2  C1  CHE B   06     25.760  74.830   3.258  0.00  0.00    +0.157 A 
ATOM      3  N2  CHE B   06     24.862  71.297   1.579  0.00  0.00    -0.224 NA
ATOM      4  C2  CHE B   06     24.549  71.140   2.220  0.00  0.00    +0.089 A 
ATOM      5  C9  CHE B   06     23.983  70.857   3.378  0.00  0.00    +0.067 A 
ATOM      6  S1  CHE B   06     23.944  70.838   3.457  0.00  0.00    -0.050 S 
ATOM      7  H1  CHE B   06     25.802  73.309   1.413  0.00  0.00    +0.144 HD
ATOM      8  H2  CHE B   06     26.448  76.716   3.610  0.00  0.00    +0.144 HD
ENDROOT
BRANCH   5   9
ATOM      9  C10 CHE B   06     23.486  70.608   4.396  0.00  0.00    +0.081 A 
ATOM     10  C11 CHE B   06     18.409  68.992   1.634  0.00  0.00    +0.031 A 
ATOM     11  C12 CHE B   06     22.106  70.072   5.027  0.00  0.00    +0.032 A 
ATOM     12  C13 CHE B   06     18.309  68.788   4.031  0.00  0.00    +0.089 A 
ATOM     13  N3  CHE B   06     17.820  68.544   5.032  0.00  0.00    -0.253 NA
ATOM     14  C14 CHE B   06     20.756  69.397   7.791  0.00  0.00    +0.111 A 
ATOM     15  C15 CHE B   06     15.773  67.828   4.836  0.00  0.00    +0.022 A 
ATOM     16  C16 CHE B   06     16.275  68.079   3.810  0.00  0.00    +0.031 A 
ATOM     17  C17 CHE B   06     21.729  69.883   5.799  0.00  0.00    +0.090 A 
ATOM     18  N4  CHE B   06     19.693  69.326   3.392  0.00  0.00    -0.245 NA
ENDBRANCH   5   9
BRANCH   4  19
ATOM     19  C3  CHE B   06     26.076  75.759   3.491  0.00  0.00    +0.003 A 
ATOM     20  C4  CHE B   06     25.103  73.004   2.710  0.00  0.00    +0.010 A 
ATOM     21  C5  CHE B   06     25.845  73.801   3.099  0.00  0.00    +0.002 A 
ATOM     22  C6  CHE B   06     25.880  69.741   2.467  0.00  0.00    +0.020 A 
ATOM     23  C7  CHE B   06     26.022  68.687   2.350  0.00  0.00    +0.042 A 
ATOM     24 CL1  CHE B   06     28.337  74.090   4.023  0.00  0.00    -0.084 Cl
ATOM     25  C8  CHE B   06     25.497  68.840   2.189  0.00  0.00    +0.030 A 
ENDBRANCH   4  19
TORSDOF 2
ENDMDL
