MODEL 1
REMARK VINA RESULT:      -7.4      0.000      0.000
REMARK  Name = dock_mp/CHEMBL3/CHEMBL341280.pdb
REMARK  2 active torsions:
REMARK  status: ('A' for Active; 'I' for Inactive)
REMARK    1  A    between atoms: C5_6  and  C6_7
REMARK    2  A    between atoms: C8_11  and  C9_12
REMARK                            x       y       z     vdW  Elec       q    Type
REMARK                         _______ _______ _______ _____ _____    ______ ____
ROOT
ATOM      1  C6  CHE B   02     20.050  68.943   9.357  0.00  0.00    +0.092 A 
ATOM      2  N1  CHE B   02     20.797  69.430   9.823  0.00  0.00    -0.275 N 
ATOM      3  N2  CHE B   02     20.345  68.987  10.747  0.00  0.00    -0.181 NA
ATOM      4  C7  CHE B   02     18.590  67.755  10.352  0.00  0.00    +0.143 A 
ATOM      5  C8  CHE B   02     20.244  68.888  10.953  0.00  0.00    +0.029 A 
ATOM      6  H4  CHE B   02     22.541  70.651  10.243  0.00  0.00    +0.189 HD
ENDROOT
BRANCH   5   7
ATOM      7  C9  CHE B   02     20.043  68.690  11.366  0.00  0.00    -0.004 A 
ATOM      8  C10 CHE B   02     21.981  67.916  11.190  0.00  0.00    +0.029 A 
ATOM      9  C11 CHE B   02     23.491  66.723  11.889  0.00  0.00    +0.112 A 
ATOM     10  N3  CHE B   02     19.700  68.353  12.067  0.00  0.00    -0.255 NA
ATOM     11  C12 CHE B   02     18.614  68.625  12.394  0.00  0.00    +0.072 A 
ATOM     12  C13 CHE B   02     17.343  68.715  13.100  0.00  0.00    +0.028 A 
ATOM     13  C14 CHE B   02     19.612  66.929  14.140  0.00  0.00    +0.002 A 
ATOM     14  C15 CHE B   02     22.322  65.575  14.281  0.00  0.00    +0.001 A 
ATOM     15  C16 CHE B   02     17.678  69.043  12.416  0.00  0.00    +0.010 A 
ATOM     16  C17 CHE B   02     20.455  67.757  12.416  0.00  0.00    +0.008 A 
ENDBRANCH   5   7
BRANCH   1  22
ATOM     17 BR1  CHE B   02     23.152  71.462  10.609  0.00  0.00    -0.029 Br
ATOM     18  C1  CHE B   02     17.843  67.880   5.800  0.00  0.00    +0.107 A 
ATOM     19  C2  CHE B   02     17.532  68.006   4.290  0.00  0.00    +0.035 A 
ATOM     20  C3  CHE B   02     20.347  70.058   6.281  0.00  0.00    +0.005 A 
ATOM     21  C4  CHE B   02     17.338  67.691   4.788  0.00  0.00    +0.030 A 
ATOM     22  C5  CHE B   02     17.656  67.575   6.282  0.00  0.00    +0.090 A 
ATOM     23  N4  CHE B   02     20.284  69.323   8.755  0.00  0.00    -0.238 NA
ENDBRANCH   1  22
TORSDOF 2
ENDMDL
MODEL 2
REMARK VINA RESULT:      -7.3      6.517     10.319
REMARK  Name = dock_mp/CHEMBL3/CHEMBL341280.pdb
REMARK  2 active torsions:
REMARK  status: ('A' for Active; 'I' for Inactive)
REMARK    1  A    between atoms: C5_6  and  C6_7
REMARK    2  A    between atoms: C8_11  and  C9_12
REMARK                            x       y       z     vdW  Elec       q    Type
REMARK                         _______ _______ _______ _____ _____    ______ ____
ROOT
ATOM      1  C6  CHE B   02     22.759  69.668   2.928  0.00  0.00    +0.092 A 
ATOM      2  N1  CHE B   02     23.580  69.675   3.510  0.00  0.00    -0.275 N 
ATOM      3  N2  CHE B   02     24.113  69.867   2.544  0.00  0.00    -0.181 NA
ATOM      4  C7  CHE B   02     22.782  69.965   0.819  0.00  0.00    +0.143 A 
ATOM      5  C8  CHE B   02     24.233  69.909   2.328  0.00  0.00    +0.029 A 
ATOM      6  H4  CHE B   02     24.925  69.582   5.209  0.00  0.00    +0.189 HD
ENDROOT
BRANCH   5   7
ATOM      7  C9  CHE B   02     24.471  69.995   1.897  0.00  0.00    -0.004 A 
ATOM      8  C10 CHE B   02     24.556  71.764   3.014  0.00  0.00    +0.029 A 
ATOM      9  C11 CHE B   02     25.146  73.715   3.217  0.00  0.00    +0.112 A 
ATOM     10  N3  CHE B   02     24.876  70.141   1.164  0.00  0.00    -0.255 NA
ATOM     11  C12 CHE B   02     24.971  69.306   0.355  0.00  0.00    +0.072 A 
ATOM     12  C13 CHE B   02     25.286  68.550  -0.850  0.00  0.00    +0.028 A 
ATOM     13  C14 CHE B   02     26.166  71.474  -0.537  0.00  0.00    +0.002 A 
ATOM     14  C15 CHE B   02     26.527  74.211   0.716  0.00  0.00    +0.001 A 
ATOM     15  C16 CHE B   02     24.891  68.408  -0.134  0.00  0.00    +0.010 A 
ATOM     16  C17 CHE B   02     25.171  71.116   1.266  0.00  0.00    +0.008 A 
ENDBRANCH   5   7
BRANCH   1  22
ATOM     17 BR1  CHE B   02     25.699  69.251   5.881  0.00  0.00    -0.029 Br
ATOM     18  C1  CHE B   02     18.502  69.206   2.367  0.00  0.00    +0.107 A 
ATOM     19  C2  CHE B   02     17.082  68.854   2.871  0.00  0.00    +0.035 A 
ATOM     20  C3  CHE B   02     20.445  68.718   5.057  0.00  0.00    +0.005 A 
ATOM     21  C4  CHE B   02     17.367  69.044   2.354  0.00  0.00    +0.030 A 
ATOM     22  C5  CHE B   02     18.777  69.390   1.867  0.00  0.00    +0.090 A 
ATOM     23  N4  CHE B   02     22.415  69.438   3.553  0.00  0.00    -0.238 NA
ENDBRANCH   1  22
TORSDOF 2
ENDMDL
MODEL 3
REMARK VINA RESULT:      -7.0      1.806      2.069
REMARK  Name = dock_mp/CHEMBL3/CHEMBL341280.pdb
REMARK  2 active torsions:
REMARK  status: ('A' for Active; 'I' for Inactive)
REMARK    1  A    between atoms: C5_6  and  C6_7
REMARK    2  A    between atoms: C8_11  and  C9_12
REMARK                            x       y       z     vdW  Elec       q    Type
REMARK                         _______ _______ _______ _____ _____    ______ ____
ROOT
ATOM      1  C6  CHE B   02     18.799  68.064   8.632  0.00  0.00    +0.092 A 
ATOM      2  N1  CHE B   02     19.615  68.651   8.614  0.00  0.00    -0.275 N 
ATOM      3  N2  CHE B   02     19.574  68.533   9.727  0.00  0.00    -0.181 NA
ATOM      4  C7  CHE B   02     17.917  67.290  10.409  0.00  0.00    +0.143 A 
ATOM      5  C8  CHE B   02     19.564  68.507   9.975  0.00  0.00    +0.029 A 
ATOM      6  H4  CHE B   02     21.271  69.892   7.961  0.00  0.00    +0.189 HD
ENDROOT
BRANCH   5   7
ATOM      7  C9  CHE B   02     19.546  68.454  10.472  0.00  0.00    -0.004 A 
ATOM      8  C10 CHE B   02     21.462  67.874   9.857  0.00  0.00    +0.029 A 
ATOM      9  C11 CHE B   02     23.339  67.182  10.296  0.00  0.00    +0.112 A 
ATOM     10  N3  CHE B   02     19.515  68.365  11.317  0.00  0.00    -0.255 NA
ATOM     11  C12 CHE B   02     18.546  68.624  11.912  0.00  0.00    +0.072 A 
ATOM     12  C13 CHE B   02     17.561  68.835  12.964  0.00  0.00    +0.028 A 
ATOM     13  C14 CHE B   02     20.376  67.798  13.613  0.00  0.00    +0.002 A 
ATOM     14  C15 CHE B   02     23.232  66.876  13.178  0.00  0.00    +0.001 A 
ATOM     15  C16 CHE B   02     17.591  68.923  12.140  0.00  0.00    +0.010 A 
ATOM     16  C17 CHE B   02     20.453  68.019  11.536  0.00  0.00    +0.008 A 
ENDBRANCH   5   7
BRANCH   1  22
ATOM     17 BR1  CHE B   02     22.099  70.492   7.764  0.00  0.00    -0.029 Br
ATOM     18  C1  CHE B   02     15.611  65.930   6.647  0.00  0.00    +0.107 A 
ATOM     19  C2  CHE B   02     14.844  65.476   5.383  0.00  0.00    +0.035 A 
ATOM     20  C3  CHE B   02     18.108  67.809   5.429  0.00  0.00    +0.005 A 
ATOM     21  C4  CHE B   02     14.820  65.412   5.999  0.00  0.00    +0.030 A 
ATOM     22  C5  CHE B   02     15.587  65.868   7.243  0.00  0.00    +0.090 A 
ATOM     23  N4  CHE B   02     18.828  68.141   7.886  0.00  0.00    -0.238 NA
ENDBRANCH   1  22
TORSDOF 2
ENDMDL
MODEL 4
REMARK VINA RESULT:      -6.6      5.072      7.664
REMARK  Name = dock_mp/CHEMBL3/CHEMBL341280.pdb
REMARK  2 active torsions:
REMARK  status: ('A' for Active; 'I' for Inactive)
REMARK    1  A    between atoms: C5_6  and  C6_7
REMARK    2  A    between atoms: C8_11  and  C9_12
REMARK                            x       y       z     vdW  Elec       q    Type
REMARK                         _______ _______ _______ _____ _____    ______ ____
ROOT
ATOM      1  C6  CHE B   02     16.606  67.189   5.260  0.00  0.00    +0.092 A 
ATOM      2  N1  CHE B   02     16.910  67.801   5.998  0.00  0.00    -0.275 N 
ATOM      3  N2  CHE B   02     17.522  68.273   5.188  0.00  0.00    -0.181 NA
ATOM      4  C7  CHE B   02     17.270  67.323   3.241  0.00  0.00    +0.143 A 
ATOM      5  C8  CHE B   02     17.659  68.379   5.007  0.00  0.00    +0.029 A 
ATOM      6  H4  CHE B   02     17.178  68.764   7.923  0.00  0.00    +0.189 HD
ENDROOT
BRANCH   5   7
ATOM      7  C9  CHE B   02     17.932  68.589   4.645  0.00  0.00    -0.004 A 
ATOM      8  C10 CHE B   02     19.215  68.224   6.259  0.00  0.00    +0.029 A 
ATOM      9  C11 CHE B   02     21.078  68.306   7.105  0.00  0.00    +0.112 A 
ATOM     10  N3  CHE B   02     18.396  68.948   4.030  0.00  0.00    -0.255 NA
ATOM     11  C12 CHE B   02     17.913  69.252   3.013  0.00  0.00    +0.072 A 
ATOM     12  C13 CHE B   02     17.682  69.751   1.664  0.00  0.00    +0.028 A 
ATOM     13  C14 CHE B   02     20.470  69.870   2.941  0.00  0.00    +0.002 A 
ATOM     14  C15 CHE B   02     22.663  69.528   5.007  0.00  0.00    +0.001 A 
ATOM     15  C16 CHE B   02     17.228  69.401   2.264  0.00  0.00    +0.010 A 
ATOM     16  C17 CHE B   02     19.328  68.989   4.453  0.00  0.00    +0.008 A 
ENDBRANCH   5   7
BRANCH   1  22
ATOM     17 BR1  CHE B   02     16.777  69.926   8.425  0.00  0.00    -0.029 Br
ATOM     18  C1  CHE B   02     14.099  64.032   3.708  0.00  0.00    +0.107 A 
ATOM     19  C2  CHE B   02     12.843  63.130   3.754  0.00  0.00    +0.035 A 
ATOM     20  C3  CHE B   02     13.763  66.002   6.402  0.00  0.00    +0.005 A 
ATOM     21  C4  CHE B   02     13.348  63.221   3.406  0.00  0.00    +0.030 A 
ATOM     22  C5  CHE B   02     14.587  64.120   3.371  0.00  0.00    +0.090 A 
ATOM     23  N4  CHE B   02     15.995  67.079   5.681  0.00  0.00    -0.238 NA
ENDBRANCH   1  22
TORSDOF 2
ENDMDL
MODEL 5
REMARK VINA RESULT:      -6.6      2.994      4.584
REMARK  Name = dock_mp/CHEMBL3/CHEMBL341280.pdb
REMARK  2 active torsions:
REMARK  status: ('A' for Active; 'I' for Inactive)
REMARK    1  A    between atoms: C5_6  and  C6_7
REMARK    2  A    between atoms: C8_11  and  C9_12
REMARK                            x       y       z     vdW  Elec       q    Type
REMARK                         _______ _______ _______ _____ _____    ______ ____
ROOT
ATOM      1  C6  CHE B   02     20.323  68.453  12.288  0.00  0.00    +0.092 A 
ATOM      2  N1  CHE B   02     20.752  68.627  13.181  0.00  0.00    -0.275 N 
ATOM      3  N2  CHE B   02     21.630  68.940  12.560  0.00  0.00    -0.181 NA
ATOM      4  C7  CHE B   02     21.281  68.773  10.414  0.00  0.00    +0.143 A 
ATOM      5  C8  CHE B   02     21.826  69.010  12.421  0.00  0.00    +0.029 A 
ATOM      6  H4  CHE B   02     21.125  68.802  15.311  0.00  0.00    +0.189 HD
ENDROOT
BRANCH   5   7
ATOM      7  C9  CHE B   02     22.218  69.150  12.144  0.00  0.00    -0.004 A 
ATOM      8  C10 CHE B   02     22.666  67.268  12.947  0.00  0.00    +0.029 A 
ATOM      9  C11 CHE B   02     23.944  65.683  13.161  0.00  0.00    +0.112 A 
ATOM     10  N3  CHE B   02     22.885  69.387  11.673  0.00  0.00    -0.255 NA
ATOM     11  C12 CHE B   02     22.888  70.409  11.111  0.00  0.00    +0.072 A 
ATOM     12  C13 CHE B   02     23.253  71.559  10.293  0.00  0.00    +0.028 A 
ATOM     13  C14 CHE B   02     25.162  69.178  10.621  0.00  0.00    +0.002 A 
ATOM     14  C15 CHE B   02     26.217  66.493  11.553  0.00  0.00    +0.001 A 
ATOM     15  C16 CHE B   02     22.602  71.327  10.754  0.00  0.00    +0.010 A 
ATOM     16  C17 CHE B   02     23.524  68.594  11.780  0.00  0.00    +0.008 A 
ENDBRANCH   5   7
BRANCH   1  22
ATOM     17 BR1  CHE B   02     21.503  68.709  16.298  0.00  0.00    -0.029 Br
ATOM     18  C1  CHE B   02     17.007  67.121   9.863  0.00  0.00    +0.107 A 
ATOM     19  C2  CHE B   02     15.602  66.498   9.683  0.00  0.00    +0.035 A 
ATOM     20  C3  CHE B   02     17.467  67.099  13.185  0.00  0.00    +0.005 A 
ATOM     21  C4  CHE B   02     16.064  66.731   9.340  0.00  0.00    +0.030 A 
ATOM     22  C5  CHE B   02     17.453  67.346   9.531  0.00  0.00    +0.090 A 
ATOM     23  N4  CHE B   02     19.765  68.172  12.702  0.00  0.00    -0.238 NA
ENDBRANCH   1  22
TORSDOF 2
ENDMDL
MODEL 6
REMARK VINA RESULT:      -6.4      3.024      7.486
REMARK  Name = dock_mp/CHEMBL3/CHEMBL341280.pdb
REMARK  2 active torsions:
REMARK  status: ('A' for Active; 'I' for Inactive)
REMARK    1  A    between atoms: C5_6  and  C6_7
REMARK    2  A    between atoms: C8_11  and  C9_12
REMARK                            x       y       z     vdW  Elec       q    Type
REMARK                         _______ _______ _______ _____ _____    ______ ____
ROOT
ATOM      1  C6  CHE B   02     19.055  68.660   7.595  0.00  0.00    +0.092 A 
ATOM      2  N1  CHE B   02     18.068  68.763   7.760  0.00  0.00    -0.275 N 
ATOM      3  N2  CHE B   02     17.990  68.592   6.656  0.00  0.00    -0.181 NA
ATOM      4  C7  CHE B   02     19.918  68.287   5.684  0.00  0.00    +0.143 A 
ATOM      5  C8  CHE B   02     17.972  68.553   6.410  0.00  0.00    +0.029 A 
ATOM      6  H4  CHE B   02     16.137  69.063   8.703  0.00  0.00    +0.189 HD
ENDROOT
BRANCH   5   7
ATOM      7  C9  CHE B   02     17.937  68.477   5.917  0.00  0.00    -0.004 A 
ATOM      8  C10 CHE B   02     16.695  67.074   6.852  0.00  0.00    +0.029 A 
ATOM      9  C11 CHE B   02     15.378  65.509   6.742  0.00  0.00    +0.112 A 
ATOM     10  N3  CHE B   02     17.878  68.347   5.079  0.00  0.00    -0.255 NA
ATOM     11  C12 CHE B   02     18.479  69.003   4.326  0.00  0.00    +0.072 A 
ATOM     12  C13 CHE B   02     19.047  69.590   3.119  0.00  0.00    +0.028 A 
ATOM     13  C14 CHE B   02     17.073  67.244   2.964  0.00  0.00    +0.002 A 
ATOM     14  C15 CHE B   02     15.176  65.065   3.883  0.00  0.00    +0.001 A 
ATOM     15  C16 CHE B   02     19.105  69.717   3.937  0.00  0.00    +0.010 A 
ATOM     16  C17 CHE B   02     17.219  67.564   5.024  0.00  0.00    +0.008 A 
ENDBRANCH   5   7
BRANCH   1  22
ATOM     17 BR1  CHE B   02     15.142  68.852   9.074  0.00  0.00    -0.029 Br
ATOM     18  C1  CHE B   02     23.142  68.477   8.980  0.00  0.00    +0.107 A 
ATOM     19  C2  CHE B   02     24.210  68.433  10.097  0.00  0.00    +0.035 A 
ATOM     20  C3  CHE B   02     20.242  68.622  10.658  0.00  0.00    +0.005 A 
ATOM     21  C4  CHE B   02     24.173  68.431   9.478  0.00  0.00    +0.030 A 
ATOM     22  C5  CHE B   02     23.105  68.475   8.381  0.00  0.00    +0.090 A 
ATOM     23  N4  CHE B   02     19.100  68.663   8.343  0.00  0.00    -0.238 NA
ENDBRANCH   1  22
TORSDOF 2
ENDMDL
MODEL 7
REMARK VINA RESULT:      -6.4      6.191      9.473
REMARK  Name = dock_mp/CHEMBL3/CHEMBL341280.pdb
REMARK  2 active torsions:
REMARK  status: ('A' for Active; 'I' for Inactive)
REMARK    1  A    between atoms: C5_6  and  C6_7
REMARK    2  A    between atoms: C8_11  and  C9_12
REMARK                            x       y       z     vdW  Elec       q    Type
REMARK                         _______ _______ _______ _____ _____    ______ ____
ROOT
ATOM      1  C6  CHE B   02     23.273  69.966   3.863  0.00  0.00    +0.092 A 
ATOM      2  N1  CHE B   02     23.959  69.871   4.593  0.00  0.00    -0.275 N 
ATOM      3  N2  CHE B   02     24.613  70.438   3.883  0.00  0.00    -0.181 NA
ATOM      4  C7  CHE B   02     23.621  70.958   2.011  0.00  0.00    +0.143 A 
ATOM      5  C8  CHE B   02     24.759  70.565   3.725  0.00  0.00    +0.029 A 
ATOM      6  H4  CHE B   02     24.968  69.366   6.445  0.00  0.00    +0.189 HD
ENDROOT
BRANCH   5   7
ATOM      7  C9  CHE B   02     25.052  70.818   3.408  0.00  0.00    -0.004 A 
ATOM      8  C10 CHE B   02     25.713  68.832   3.407  0.00  0.00    +0.029 A 
ATOM      9  C11 CHE B   02     26.994  67.382   2.735  0.00  0.00    +0.112 A 
ATOM     10  N3  CHE B   02     25.548  71.249   2.869  0.00  0.00    -0.255 NA
ATOM     11  C12 CHE B   02     25.387  72.390   2.686  0.00  0.00    +0.072 A 
ATOM     12  C13 CHE B   02     25.495  73.763   2.211  0.00  0.00    +0.028 A 
ATOM     13  C14 CHE B   02     27.410  71.584   1.208  0.00  0.00    +0.002 A 
ATOM     14  C15 CHE B   02     28.688  68.852   0.897  0.00  0.00    +0.001 A 
ATOM     15  C16 CHE B   02     25.010  73.342   2.737  0.00  0.00    +0.010 A 
ATOM     16  C17 CHE B   02     26.189  70.524   2.533  0.00  0.00    +0.008 A 
ENDBRANCH   5   7
BRANCH   1  22
ATOM     17 BR1  CHE B   02     25.424  69.602   7.437  0.00  0.00    -0.029 Br
ATOM     18  C1  CHE B   02     19.287  69.410   2.295  0.00  0.00    +0.107 A 
ATOM     19  C2  CHE B   02     17.797  69.023   2.443  0.00  0.00    +0.035 A 
ATOM     20  C3  CHE B   02     20.536  68.954   5.374  0.00  0.00    +0.005 A 
ATOM     21  C4  CHE B   02     18.193  69.222   2.009  0.00  0.00    +0.030 A 
ATOM     22  C5  CHE B   02     19.671  69.602   1.875  0.00  0.00    +0.090 A 
ATOM     23  N4  CHE B   02     22.794  69.725   4.387  0.00  0.00    -0.238 NA
ENDBRANCH   1  22
TORSDOF 2
ENDMDL
MODEL 8
REMARK VINA RESULT:      -6.3      2.453      6.464
REMARK  Name = dock_mp/CHEMBL3/CHEMBL341280.pdb
REMARK  2 active torsions:
REMARK  status: ('A' for Active; 'I' for Inactive)
REMARK    1  A    between atoms: C5_6  and  C6_7
REMARK    2  A    between atoms: C8_11  and  C9_12
REMARK                            x       y       z     vdW  Elec       q    Type
REMARK                         _______ _______ _______ _____ _____    ______ ____
ROOT
ATOM      1  C6  CHE B   02     20.599  68.136   9.863  0.00  0.00    +0.092 A 
ATOM      2  N1  CHE B   02     19.709  68.324  10.292  0.00  0.00    -0.275 N 
ATOM      3  N2  CHE B   02     19.353  68.401   9.233  0.00  0.00    -0.181 NA
ATOM      4  C7  CHE B   02     20.926  68.068   7.760  0.00  0.00    +0.143 A 
ATOM      5  C8  CHE B   02     19.273  68.418   8.997  0.00  0.00    +0.029 A 
ATOM      6  H4  CHE B   02     18.126  68.659  11.737  0.00  0.00    +0.189 HD
ENDROOT
BRANCH   5   7
ATOM      7  C9  CHE B   02     19.114  68.452   8.524  0.00  0.00    -0.004 A 
ATOM      8  C10 CHE B   02     17.932  67.007   9.473  0.00  0.00    +0.029 A 
ATOM      9  C11 CHE B   02     16.413  65.635   9.420  0.00  0.00    +0.112 A 
ATOM     10  N3  CHE B   02     18.844  68.510   7.720  0.00  0.00    -0.255 NA
ATOM     11  C12 CHE B   02     19.342  69.252   6.972  0.00  0.00    +0.072 A 
ATOM     12  C13 CHE B   02     19.695  70.026   5.788  0.00  0.00    +0.028 A 
ATOM     13  C14 CHE B   02     17.419  67.967   5.717  0.00  0.00    +0.002 A 
ATOM     14  C15 CHE B   02     15.490  65.833   6.677  0.00  0.00    +0.001 A 
ATOM     15  C16 CHE B   02     19.959  69.969   6.573  0.00  0.00    +0.010 A 
ATOM     16  C17 CHE B   02     18.084  67.824   7.694  0.00  0.00    +0.008 A 
ENDBRANCH   5   7
BRANCH   1  22
ATOM     17 BR1  CHE B   02     17.296  68.851  12.337  0.00  0.00    -0.029 Br
ATOM     18  C1  CHE B   02     24.819  67.245  10.103  0.00  0.00    +0.107 A 
ATOM     19  C2  CHE B   02     26.120  66.975  10.893  0.00  0.00    +0.035 A 
ATOM     20  C3  CHE B   02     22.524  67.746  12.497  0.00  0.00    +0.005 A 
ATOM     21  C4  CHE B   02     25.922  67.013  10.307  0.00  0.00    +0.030 A 
ATOM     22  C5  CHE B   02     24.627  67.282   9.536  0.00  0.00    +0.090 A 
ATOM     23  N4  CHE B   02     20.839  68.090  10.572  0.00  0.00    -0.238 NA
ENDBRANCH   1  22
TORSDOF 2
ENDMDL
MODEL 9
REMARK VINA RESULT:      -6.1      2.443      4.371
REMARK  Name = dock_mp/CHEMBL3/CHEMBL341280.pdb
REMARK  2 active torsions:
REMARK  status: ('A' for Active; 'I' for Inactive)
REMARK    1  A    between atoms: C5_6  and  C6_7
REMARK    2  A    between atoms: C8_11  and  C9_12
REMARK                            x       y       z     vdW  Elec       q    Type
REMARK                         _______ _______ _______ _____ _____    ______ ____
ROOT
ATOM      1  C6  CHE B   02     19.351  68.213   9.076  0.00  0.00    +0.092 A 
ATOM      2  N1  CHE B   02     19.741  68.485   9.963  0.00  0.00    -0.275 N 
ATOM      3  N2  CHE B   02     20.634  68.762   9.346  0.00  0.00    -0.181 NA
ATOM      4  C7  CHE B   02     20.373  68.379   7.215  0.00  0.00    +0.143 A 
ATOM      5  C8  CHE B   02     20.833  68.824   9.209  0.00  0.00    +0.029 A 
ATOM      6  H4  CHE B   02     20.025  68.876  12.077  0.00  0.00    +0.189 HD
ENDROOT
BRANCH   5   7
ATOM      7  C9  CHE B   02     21.232  68.947   8.934  0.00  0.00    -0.004 A 
ATOM      8  C10 CHE B   02     21.893  67.644  10.433  0.00  0.00    +0.029 A 
ATOM      9  C11 CHE B   02     23.400  66.602  11.349  0.00  0.00    +0.112 A 
ATOM     10  N3  CHE B   02     21.910  69.158   8.466  0.00  0.00    -0.255 NA
ATOM     11  C12 CHE B   02     21.811  69.881   7.557  0.00  0.00    +0.072 A 
ATOM     12  C13 CHE B   02     22.079  70.718   6.394  0.00  0.00    +0.028 A 
ATOM     13  C14 CHE B   02     24.330  69.153   7.774  0.00  0.00    +0.002 A 
ATOM     14  C15 CHE B   02     25.713  67.319   9.753  0.00  0.00    +0.001 A 
ATOM     15  C16 CHE B   02     21.417  70.513   6.851  0.00  0.00    +0.010 A 
ATOM     16  C17 CHE B   02     22.663  68.637   8.924  0.00  0.00    +0.008 A 
ENDBRANCH   5   7
BRANCH   1  22
ATOM     17 BR1  CHE B   02     20.385  68.852  13.083  0.00  0.00    -0.029 Br
ATOM     18  C1  CHE B   02     16.172  66.548   6.673  0.00  0.00    +0.107 A 
ATOM     19  C2  CHE B   02     14.799  65.855   6.504  0.00  0.00    +0.035 A 
ATOM     20  C3  CHE B   02     16.520  66.823   9.998  0.00  0.00    +0.005 A 
ATOM     21  C4  CHE B   02     15.263  66.077   6.158  0.00  0.00    +0.030 A 
ATOM     22  C5  CHE B   02     16.620  66.763   6.337  0.00  0.00    +0.090 A 
ATOM     23  N4  CHE B   02     18.790  67.945   9.495  0.00  0.00    -0.238 NA
ENDBRANCH   1  22
TORSDOF 2
ENDMDL
MODEL 10
REMARK VINA RESULT:      -6.1      2.707      3.905
REMARK  Name = dock_mp/CHEMBL3/CHEMBL341280.pdb
REMARK  2 active torsions:
REMARK  status: ('A' for Active; 'I' for Inactive)
REMARK    1  A    between atoms: C5_6  and  C6_7
REMARK    2  A    between atoms: C8_11  and  C9_12
REMARK                            x       y       z     vdW  Elec       q    Type
REMARK                         _______ _______ _______ _____ _____    ______ ____
ROOT
ATOM      1  C6  CHE B   02     20.972  68.043   9.593  0.00  0.00    +0.092 A 
ATOM      2  N1  CHE B   02     20.960  67.795  10.568  0.00  0.00    -0.275 N 
ATOM      3  N2  CHE B   02     21.836  68.490  10.629  0.00  0.00    -0.181 NA
ATOM      4  C7  CHE B   02     22.368  69.390   8.715  0.00  0.00    +0.143 A 
ATOM      5  C8  CHE B   02     22.032  68.645  10.643  0.00  0.00    +0.029 A 
ATOM      6  H4  CHE B   02     20.452  66.914  12.484  0.00  0.00    +0.189 HD
ENDROOT
BRANCH   5   7
ATOM      7  C9  CHE B   02     22.423  68.956  10.670  0.00  0.00    -0.004 A 
ATOM      8  C10 CHE B   02     23.169  67.004  10.810  0.00  0.00    +0.029 A 
ATOM      9  C11 CHE B   02     24.744  65.711  11.008  0.00  0.00    +0.112 A 
ATOM     10  N3  CHE B   02     23.088  69.483  10.717  0.00  0.00    -0.255 NA
ATOM     11  C12 CHE B   02     22.941  70.639  10.663  0.00  0.00    +0.072 A 
ATOM     12  C13 CHE B   02     23.155  72.080  10.634  0.00  0.00    +0.028 A 
ATOM     13  C14 CHE B   02     25.510  70.134  10.930  0.00  0.00    +0.002 A 
ATOM     14  C15 CHE B   02     27.012  67.511  11.166  0.00  0.00    +0.001 A 
ATOM     15  C16 CHE B   02     22.506  71.565  10.588  0.00  0.00    +0.010 A 
ATOM     16  C17 CHE B   02     23.875  68.837  10.816  0.00  0.00    +0.008 A 
ENDBRANCH   5   7
BRANCH   1  22
ATOM     17 BR1  CHE B   02     19.807  67.859  13.611  0.00  0.00    -0.029 Br
ATOM     18  C1  CHE B   02     19.270  68.097   5.623  0.00  0.00    +0.107 A 
ATOM     19  C2  CHE B   02     18.073  68.075   4.644  0.00  0.00    +0.035 A 
ATOM     20  C3  CHE B   02     17.827  67.932   8.647  0.00  0.00    +0.005 A 
ATOM     21  C4  CHE B   02     18.692  68.103   4.634  0.00  0.00    +0.030 A 
ATOM     22  C5  CHE B   02     19.869  68.124   5.613  0.00  0.00    +0.090 A 
ATOM     23  N4  CHE B   02     20.223  68.009   9.606  0.00  0.00    -0.238 NA
ENDBRANCH   1  22
TORSDOF 2
ENDMDL
