MODEL 1
REMARK VINA RESULT:     -10.8      0.000      0.000
REMARK  Name = dock_mp/CHEMBL3/CHEMBL360034.pdb
REMARK  3 active torsions:
REMARK  status: ('A' for Active; 'I' for Inactive)
REMARK    1  A    between atoms: C1_1  and  C2_2
REMARK    2  A    between atoms: C6_6  and  C7_7
REMARK    3  A    between atoms: C9_12  and  C10_13
REMARK                            x       y       z     vdW  Elec       q    Type
REMARK                         _______ _______ _______ _____ _____    ______ ____
ROOT
ATOM      1  C7  CHE B   00     19.968  69.746   6.430  0.00  0.00    +0.108 A 
ATOM      2  N1  CHE B   00     19.796  69.985   5.196  0.00  0.00    -0.223 NA
ATOM      3  C8  CHE B   00     20.104  69.975   6.253  0.00  0.00    +0.157 A 
ATOM      4  N2  CHE B   00     17.864  68.842   1.881  0.00  0.00    -0.337 N 
ATOM      5  S1  CHE B   00     20.362  69.353   8.831  0.00  0.00    -0.050 S 
ATOM      6  C9  CHE B   00     17.897  67.839   4.751  0.00  0.00    +0.068 A 
ATOM      7  H7  CHE B   00     18.730  69.245   3.668  0.00  0.00    +0.144 HD
ATOM      8  H8  CHE B   00     20.213  70.688   4.655  0.00  0.00    +0.144 HD
ENDROOT
BRANCH   6   9
ATOM      9  C10 CHE B   00     19.929  68.622   9.394  0.00  0.00    +0.081 A 
ATOM     10  C11 CHE B   00     17.058  67.221   6.810  0.00  0.00    +0.031 A 
ATOM     11  C12 CHE B   00     14.659  66.018   5.094  0.00  0.00    +0.032 A 
ATOM     12  C13 CHE B   00     15.704  66.475   6.741  0.00  0.00    +0.089 A 
ATOM     13  N3  CHE B   00     14.438  65.784   6.592  0.00  0.00    -0.253 NA
ATOM     14  C14 CHE B   00     15.443  66.217   8.275  0.00  0.00    +0.111 A 
ATOM     15  C15 CHE B   00     14.963  66.110   6.116  0.00  0.00    +0.022 A 
ATOM     16  C16 CHE B   00     16.249  66.814   6.246  0.00  0.00    +0.031 A 
ATOM     17  C17 CHE B   00     15.217  66.365   4.588  0.00  0.00    +0.090 A 
ATOM     18  N4  CHE B   00     15.916  66.800   3.953  0.00  0.00    -0.245 NA
ENDBRANCH   6   9
BRANCH   1  24
ATOM     19  C1  CHE B   00     20.379  69.584   2.398  0.00  0.00    +0.065 C 
ATOM     20  C2  CHE B   00     21.975  70.313   6.097  0.00  0.00    +0.039 A 
ATOM     21  C3  CHE B   00     21.183  70.037   5.479  0.00  0.00    +0.023 A 
ATOM     22  C4  CHE B   00     18.854  69.219   3.591  0.00  0.00    +0.004 A 
ATOM     23  C5  CHE B   00     19.602  69.571   5.480  0.00  0.00    +0.030 A 
ATOM     24  C6  CHE B   00     18.692  69.180   3.718  0.00  0.00    +0.091 A 
ATOM     25  N5  CHE B   00     22.707  70.661   7.997  0.00  0.00    -0.250 NA
ENDBRANCH   1  24
TORSDOF 2
ENDMDL
MODEL 2
REMARK VINA RESULT:     -10.7      1.914      4.193
REMARK  Name = dock_mp/CHEMBL3/CHEMBL360034.pdb
REMARK  3 active torsions:
REMARK  status: ('A' for Active; 'I' for Inactive)
REMARK    1  A    between atoms: C1_1  and  C2_2
REMARK    2  A    between atoms: C6_6  and  C7_7
REMARK    3  A    between atoms: C9_12  and  C10_13
REMARK                            x       y       z     vdW  Elec       q    Type
REMARK                         _______ _______ _______ _____ _____    ______ ____
ROOT
ATOM      1  C7  CHE B   00     19.917  69.885   7.344  0.00  0.00    +0.108 A 
ATOM      2  N1  CHE B   00     18.903  69.659   8.071  0.00  0.00    -0.223 NA
ATOM      3  C8  CHE B   00     19.858  69.996   7.638  0.00  0.00    +0.157 A 
ATOM      4  N2  CHE B   00     15.394  67.742   8.289  0.00  0.00    -0.337 N 
ATOM      5  S1  CHE B   00     21.923  70.377   5.999  0.00  0.00    -0.050 S 
ATOM      6  C9  CHE B   00     17.558  67.940   6.162  0.00  0.00    +0.068 A 
ATOM      7  H7  CHE B   00     17.193  68.619   7.964  0.00  0.00    +0.144 HD
ATOM      8  H8  CHE B   00     18.720  69.999   8.972  0.00  0.00    +0.144 HD
ENDROOT
BRANCH   6   9
ATOM      9  C10 CHE B   00     22.113  70.023   5.061  0.00  0.00    +0.081 A 
ATOM     10  C11 CHE B   00     18.300  68.793   4.150  0.00  0.00    +0.031 A 
ATOM     11  C12 CHE B   00     15.407  67.956   3.114  0.00  0.00    +0.032 A 
ATOM     12  C13 CHE B   00     17.260  68.708   3.008  0.00  0.00    +0.089 A 
ATOM     13  N3  CHE B   00     16.233  68.592   1.992  0.00  0.00    -0.253 NA
ATOM     14  C14 CHE B   00     18.081  69.358   1.828  0.00  0.00    +0.111 A 
ATOM     15  C15 CHE B   00     16.304  68.408   2.747  0.00  0.00    +0.022 A 
ATOM     16  C16 CHE B   00     17.334  68.517   3.792  0.00  0.00    +0.031 A 
ATOM     17  C17 CHE B   00     15.483  67.760   3.917  0.00  0.00    +0.090 A 
ATOM     18  N4  CHE B   00     15.578  67.515   4.923  0.00  0.00    -0.245 NA
ENDBRANCH   6   9
BRANCH   1  24
ATOM     19  C1  CHE B   00     17.390  68.170  10.013  0.00  0.00    +0.065 C 
ATOM     20  C2  CHE B   00     20.989  69.925   9.163  0.00  0.00    +0.039 A 
ATOM     21  C3  CHE B   00     20.047  69.584   8.879  0.00  0.00    +0.023 A 
ATOM     22  C4  CHE B   00     17.227  68.548   8.087  0.00  0.00    +0.004 A 
ATOM     23  C5  CHE B   00     19.021  69.438   7.598  0.00  0.00    +0.030 A 
ATOM     24  C6  CHE B   00     17.209  68.588   7.881  0.00  0.00    +0.091 A 
ATOM     25  N5  CHE B   00     22.782  70.819   8.655  0.00  0.00    -0.250 NA
ENDBRANCH   1  24
TORSDOF 2
ENDMDL
MODEL 3
REMARK VINA RESULT:     -10.7      2.345      4.808
REMARK  Name = dock_mp/CHEMBL3/CHEMBL360034.pdb
REMARK  3 active torsions:
REMARK  status: ('A' for Active; 'I' for Inactive)
REMARK    1  A    between atoms: C1_1  and  C2_2
REMARK    2  A    between atoms: C6_6  and  C7_7
REMARK    3  A    between atoms: C9_12  and  C10_13
REMARK                            x       y       z     vdW  Elec       q    Type
REMARK                         _______ _______ _______ _____ _____    ______ ____
ROOT
ATOM      1  C7  CHE B   00     17.527  68.651   8.151  0.00  0.00    +0.108 A 
ATOM      2  N1  CHE B   00     18.626  69.278   8.057  0.00  0.00    -0.223 NA
ATOM      3  C8  CHE B   00     17.682  68.812   8.380  0.00  0.00    +0.157 A 
ATOM      4  N2  CHE B   00     21.599  70.314   5.584  0.00  0.00    -0.337 N 
ATOM      5  S1  CHE B   00     15.387  67.459   8.423  0.00  0.00    -0.050 S 
ATOM      6  C9  CHE B   00     19.047  68.696   5.247  0.00  0.00    +0.068 A 
ATOM      7  H7  CHE B   00     19.999  69.678   6.652  0.00  0.00    +0.144 HD
ATOM      8  H8  CHE B   00     19.101  69.769   8.759  0.00  0.00    +0.144 HD
ENDROOT
BRANCH   6   9
ATOM      9  C10 CHE B   00     14.892  66.948   7.693  0.00  0.00    +0.081 A 
ATOM     10  C11 CHE B   00     16.939  68.302   4.397  0.00  0.00    +0.031 A 
ATOM     11  C12 CHE B   00     18.221  69.309   1.661  0.00  0.00    +0.032 A 
ATOM     12  C13 CHE B   00     16.798  68.618   2.889  0.00  0.00    +0.089 A 
ATOM     13  N3  CHE B   00     16.747  68.937   1.476  0.00  0.00    -0.253 NA
ATOM     14  C14 CHE B   00     15.283  68.245   2.661  0.00  0.00    +0.111 A 
ATOM     15  C15 CHE B   00     17.285  68.956   2.040  0.00  0.00    +0.022 A 
ATOM     16  C16 CHE B   00     17.357  68.638   3.475  0.00  0.00    +0.031 A 
ATOM     17  C17 CHE B   00     18.794  69.329   2.261  0.00  0.00    +0.090 A 
ATOM     18  N4  CHE B   00     19.512  69.354   3.014  0.00  0.00    -0.245 NA
ENDBRANCH   6   9
BRANCH   1  24
ATOM     19  C1  CHE B   00     21.536  69.259   8.041  0.00  0.00    +0.065 C 
ATOM     20  C2  CHE B   00     18.199  67.974  10.034  0.00  0.00    +0.039 A 
ATOM     21  C3  CHE B   00     18.665  68.382   9.198  0.00  0.00    +0.023 A 
ATOM     22  C4  CHE B   00     20.107  69.597   6.727  0.00  0.00    +0.004 A 
ATOM     23  C5  CHE B   00     18.392  68.965   7.681  0.00  0.00    +0.030 A 
ATOM     24  C6  CHE B   00     19.955  69.633   6.587  0.00  0.00    +0.091 A 
ATOM     25  N5  CHE B   00     16.469  67.345  10.974  0.00  0.00    -0.250 NA
ENDBRANCH   1  24
TORSDOF 2
ENDMDL
MODEL 4
REMARK VINA RESULT:     -10.7      1.722      5.874
REMARK  Name = dock_mp/CHEMBL3/CHEMBL360034.pdb
REMARK  3 active torsions:
REMARK  status: ('A' for Active; 'I' for Inactive)
REMARK    1  A    between atoms: C1_1  and  C2_2
REMARK    2  A    between atoms: C6_6  and  C7_7
REMARK    3  A    between atoms: C9_12  and  C10_13
REMARK                            x       y       z     vdW  Elec       q    Type
REMARK                         _______ _______ _______ _____ _____    ______ ____
ROOT
ATOM      1  C7  CHE B   00     16.470  67.371   5.927  0.00  0.00    +0.108 A 
ATOM      2  N1  CHE B   00     16.913  67.648   4.771  0.00  0.00    -0.223 NA
ATOM      3  C8  CHE B   00     16.358  67.272   5.644  0.00  0.00    +0.157 A 
ATOM      4  N2  CHE B   00     19.709  69.668   2.737  0.00  0.00    -0.337 N 
ATOM      5  S1  CHE B   00     15.543  66.779   8.132  0.00  0.00    -0.050 S 
ATOM      6  C9  CHE B   00     19.080  69.340   5.694  0.00  0.00    +0.068 A 
ATOM      7  H7  CHE B   00     18.393  68.731   3.962  0.00  0.00    +0.144 HD
ATOM      8  H8  CHE B   00     16.569  67.344   3.905  0.00  0.00    +0.144 HD
ENDROOT
BRANCH   6   9
ATOM      9  C10 CHE B   00     15.900  67.096   9.033  0.00  0.00    +0.081 A 
ATOM     10  C11 CHE B   00     19.371  69.016   7.960  0.00  0.00    +0.031 A 
ATOM     11  C12 CHE B   00     22.157  70.480   7.470  0.00  0.00    +0.032 A 
ATOM     12  C13 CHE B   00     20.712  69.559   8.507  0.00  0.00    +0.089 A 
ATOM     13  N3  CHE B   00     21.987  70.094   8.942  0.00  0.00    -0.253 NA
ATOM     14  C14 CHE B   00     20.572  69.177  10.031  0.00  0.00    +0.111 A 
ATOM     15  C15 CHE B   00     21.597  70.041   8.269  0.00  0.00    +0.022 A 
ATOM     16  C16 CHE B   00     20.306  69.505   7.808  0.00  0.00    +0.031 A 
ATOM     17  C17 CHE B   00     21.741  70.424   6.754  0.00  0.00    +0.090 A 
ATOM     18  N4  CHE B   00     21.221  70.354   5.856  0.00  0.00    -0.245 NA
ENDBRANCH   6   9
BRANCH   1  24
ATOM     19  C1  CHE B   00     17.552  68.234   2.114  0.00  0.00    +0.065 C 
ATOM     20  C2  CHE B   00     15.001  66.416   4.749  0.00  0.00    +0.039 A 
ATOM     21  C3  CHE B   00     15.842  66.993   4.539  0.00  0.00    +0.023 A 
ATOM     22  C4  CHE B   00     18.341  68.709   3.856  0.00  0.00    +0.004 A 
ATOM     23  C5  CHE B   00     17.091  67.815   5.230  0.00  0.00    +0.030 A 
ATOM     24  C6  CHE B   00     18.425  68.759   4.041  0.00  0.00    +0.091 A 
ATOM     25  N5  CHE B   00     13.759  65.528   6.141  0.00  0.00    -0.250 NA
ENDBRANCH   1  24
TORSDOF 2
ENDMDL
MODEL 5
REMARK VINA RESULT:     -10.6      1.770      2.325
REMARK  Name = dock_mp/CHEMBL3/CHEMBL360034.pdb
REMARK  3 active torsions:
REMARK  status: ('A' for Active; 'I' for Inactive)
REMARK    1  A    between atoms: C1_1  and  C2_2
REMARK    2  A    between atoms: C6_6  and  C7_7
REMARK    3  A    between atoms: C9_12  and  C10_13
REMARK                            x       y       z     vdW  Elec       q    Type
REMARK                         _______ _______ _______ _____ _____    ______ ____
ROOT
ATOM      1  C7  CHE B   00     19.902  69.430   4.746  0.00  0.00    +0.108 A 
ATOM      2  N1  CHE B   00     19.117  69.212   3.774  0.00  0.00    -0.223 NA
ATOM      3  C8  CHE B   00     19.964  69.456   4.433  0.00  0.00    +0.157 A 
ATOM      4  N2  CHE B   00     15.409  68.102   2.748  0.00  0.00    -0.337 N 
ATOM      5  S1  CHE B   00     21.494  69.876   6.574  0.00  0.00    -0.050 S 
ATOM      6  C9  CHE B   00     16.835  68.479   5.407  0.00  0.00    +0.068 A 
ATOM      7  H7  CHE B   00     17.217  68.638   3.491  0.00  0.00    +0.144 HD
ATOM      8  H8  CHE B   00     19.308  69.292   2.816  0.00  0.00    +0.144 HD
ENDROOT
BRANCH   6   9
ATOM      9  C10 CHE B   00     21.295  69.793   7.571  0.00  0.00    +0.081 A 
ATOM     10  C11 CHE B   00     17.699  67.810   7.440  0.00  0.00    +0.031 A 
ATOM     11  C12 CHE B   00     14.996  66.139   7.657  0.00  0.00    +0.032 A 
ATOM     12  C13 CHE B   00     16.785  66.839   8.223  0.00  0.00    +0.089 A 
ATOM     13  N3  CHE B   00     15.873  65.933   8.895  0.00  0.00    -0.253 NA
ATOM     14  C14 CHE B   00     17.662  66.602   9.513  0.00  0.00    +0.111 A 
ATOM     15  C15 CHE B   00     15.885  66.325   8.221  0.00  0.00    +0.022 A 
ATOM     16  C16 CHE B   00     16.798  67.246   7.524  0.00  0.00    +0.031 A 
ATOM     17  C17 CHE B   00     15.009  66.557   6.940  0.00  0.00    +0.090 A 
ATOM     18  N4  CHE B   00     15.025  67.080   6.041  0.00  0.00    -0.245 NA
ENDBRANCH   6   9
BRANCH   1  24
ATOM     19  C1  CHE B   00     17.706  68.512   1.462  0.00  0.00    +0.065 C 
ATOM     20  C2  CHE B   00     21.277  69.585   3.151  0.00  0.00    +0.039 A 
ATOM     21  C3  CHE B   00     20.266  69.344   3.222  0.00  0.00    +0.023 A 
ATOM     22  C4  CHE B   00     17.248  68.619   3.375  0.00  0.00    +0.004 A 
ATOM     23  C5  CHE B   00     19.019  69.160   4.283  0.00  0.00    +0.030 A 
ATOM     24  C6  CHE B   00     17.200  68.631   3.579  0.00  0.00    +0.091 A 
ATOM     25  N5  CHE B   00     23.042  70.126   4.078  0.00  0.00    -0.250 NA
ENDBRANCH   1  24
TORSDOF 2
ENDMDL
MODEL 6
REMARK VINA RESULT:     -10.5      1.898      4.828
REMARK  Name = dock_mp/CHEMBL3/CHEMBL360034.pdb
REMARK  3 active torsions:
REMARK  status: ('A' for Active; 'I' for Inactive)
REMARK    1  A    between atoms: C1_1  and  C2_2
REMARK    2  A    between atoms: C6_6  and  C7_7
REMARK    3  A    between atoms: C9_12  and  C10_13
REMARK                            x       y       z     vdW  Elec       q    Type
REMARK                         _______ _______ _______ _____ _____    ______ ____
ROOT
ATOM      1  C7  CHE B   00     18.877  67.707   7.890  0.00  0.00    +0.108 A 
ATOM      2  N1  CHE B   00     17.750  67.131   7.965  0.00  0.00    -0.223 NA
ATOM      3  C8  CHE B   00     18.765  67.524   8.127  0.00  0.00    +0.157 A 
ATOM      4  N2  CHE B   00     14.266  66.502   6.093  0.00  0.00    -0.337 N 
ATOM      5  S1  CHE B   00     21.090  68.790   7.827  0.00  0.00    -0.050 S 
ATOM      6  C9  CHE B   00     16.777  68.071   5.400  0.00  0.00    +0.068 A 
ATOM      7  H7  CHE B   00     16.090  66.951   6.855  0.00  0.00    +0.144 HD
ATOM      8  H8  CHE B   00     17.406  66.571   8.693  0.00  0.00    +0.144 HD
ENDROOT
BRANCH   6   9
ATOM      9  C10 CHE B   00     21.447  69.372   7.070  0.00  0.00    +0.081 A 
ATOM     10  C11 CHE B   00     18.550  68.921   4.192  0.00  0.00    +0.031 A 
ATOM     11  C12 CHE B   00     16.542  68.699   1.729  0.00  0.00    +0.032 A 
ATOM     12  C13 CHE B   00     18.254  69.110   2.686  0.00  0.00    +0.089 A 
ATOM     13  N3  CHE B   00     17.898  69.257   1.288  0.00  0.00    -0.253 NA
ATOM     14  C14 CHE B   00     19.637  69.687   2.194  0.00  0.00    +0.111 A 
ATOM     15  C15 CHE B   00     17.545  69.008   1.937  0.00  0.00    +0.022 A 
ATOM     16  C16 CHE B   00     17.887  68.852   3.360  0.00  0.00    +0.031 A 
ATOM     17  C17 CHE B   00     16.166  68.435   2.420  0.00  0.00    +0.090 A 
ATOM     18  N4  CHE B   00     15.695  68.103   3.286  0.00  0.00    -0.245 NA
ENDBRANCH   6   9
BRANCH   1  24
ATOM     19  C1  CHE B   00     14.930  67.112   8.610  0.00  0.00    +0.065 C 
ATOM     20  C2  CHE B   00     18.679  68.045   9.965  0.00  0.00    +0.039 A 
ATOM     21  C3  CHE B   00     18.019  67.786   9.202  0.00  0.00    +0.023 A 
ATOM     22  C4  CHE B   00     16.007  67.013   6.963  0.00  0.00    +0.004 A 
ATOM     23  C5  CHE B   00     17.917  67.476   7.586  0.00  0.00    +0.030 A 
ATOM     24  C6  CHE B   00     16.122  67.002   6.788  0.00  0.00    +0.091 A 
ATOM     25  N5  CHE B   00     20.599  68.507  10.571  0.00  0.00    -0.250 NA
ENDBRANCH   1  24
TORSDOF 2
ENDMDL
MODEL 7
REMARK VINA RESULT:     -10.3      2.247      3.969
REMARK  Name = dock_mp/CHEMBL3/CHEMBL360034.pdb
REMARK  3 active torsions:
REMARK  status: ('A' for Active; 'I' for Inactive)
REMARK    1  A    between atoms: C1_1  and  C2_2
REMARK    2  A    between atoms: C6_6  and  C7_7
REMARK    3  A    between atoms: C9_12  and  C10_13
REMARK                            x       y       z     vdW  Elec       q    Type
REMARK                         _______ _______ _______ _____ _____    ______ ____
ROOT
ATOM      1  C7  CHE B   00     19.814  69.214   4.195  0.00  0.00    +0.108 A 
ATOM      2  N1  CHE B   00     20.407  69.215   5.316  0.00  0.00    -0.223 NA
ATOM      3  C8  CHE B   00     20.126  69.254   4.253  0.00  0.00    +0.157 A 
ATOM      4  N2  CHE B   00     19.918  68.851   9.274  0.00  0.00    -0.337 N 
ATOM      5  S1  CHE B   00     18.746  69.227   1.974  0.00  0.00    -0.050 S 
ATOM      6  C9  CHE B   00     18.021  68.757   6.900  0.00  0.00    +0.068 A 
ATOM      7  H7  CHE B   00     19.933  69.003   7.253  0.00  0.00    +0.144 HD
ATOM      8  H8  CHE B   00     21.363  69.339   5.493  0.00  0.00    +0.144 HD
ENDROOT
BRANCH   6   9
ATOM      9  C10 CHE B   00     17.751  69.099   1.791  0.00  0.00    +0.081 A 
ATOM     10  C11 CHE B   00     16.633  67.612   5.455  0.00  0.00    +0.031 A 
ATOM     11  C12 CHE B   00     15.532  66.259   8.119  0.00  0.00    +0.032 A 
ATOM     12  C13 CHE B   00     15.673  66.622   6.154  0.00  0.00    +0.089 A 
ATOM     13  N3  CHE B   00     14.806  65.717   6.884  0.00  0.00    -0.253 NA
ATOM     14  C14 CHE B   00     14.904  66.041   4.905  0.00  0.00    +0.111 A 
ATOM     15  C15 CHE B   00     15.368  66.227   7.062  0.00  0.00    +0.022 A 
ATOM     16  C16 CHE B   00     16.256  67.152   6.340  0.00  0.00    +0.031 A 
ATOM     17  C17 CHE B   00     16.130  66.802   8.309  0.00  0.00    +0.090 A 
ATOM     18  N4  CHE B   00     16.879  67.483   8.547  0.00  0.00    -0.245 NA
ENDBRANCH   6   9
BRANCH   1  24
ATOM     19  C1  CHE B   00     21.963  69.327   7.634  0.00  0.00    +0.065 C 
ATOM     20  C2  CHE B   00     21.788  69.602   3.553  0.00  0.00    +0.039 A 
ATOM     21  C3  CHE B   00     21.339  69.455   4.481  0.00  0.00    +0.023 A 
ATOM     22  C4  CHE B   00     20.049  69.024   7.275  0.00  0.00    +0.004 A 
ATOM     23  C5  CHE B   00     19.899  69.152   5.223  0.00  0.00    +0.030 A 
ATOM     24  C6  CHE B   00     19.845  68.992   7.237  0.00  0.00    +0.091 A 
ATOM     25  N5  CHE B   00     21.618  69.726   1.497  0.00  0.00    -0.250 NA
ENDBRANCH   1  24
TORSDOF 2
ENDMDL
MODEL 8
REMARK VINA RESULT:     -10.2      2.309      4.525
REMARK  Name = dock_mp/CHEMBL3/CHEMBL360034.pdb
REMARK  3 active torsions:
REMARK  status: ('A' for Active; 'I' for Inactive)
REMARK    1  A    between atoms: C1_1  and  C2_2
REMARK    2  A    between atoms: C6_6  and  C7_7
REMARK    3  A    between atoms: C9_12  and  C10_13
REMARK                            x       y       z     vdW  Elec       q    Type
REMARK                         _______ _______ _______ _____ _____    ______ ____
ROOT
ATOM      1  C7  CHE B   00     18.845  68.495   4.541  0.00  0.00    +0.108 A 
ATOM      2  N1  CHE B   00     17.737  67.922   4.310  0.00  0.00    -0.223 NA
ATOM      3  C8  CHE B   00     18.742  68.368   4.266  0.00  0.00    +0.157 A 
ATOM      4  N2  CHE B   00     14.244  66.791   5.909  0.00  0.00    -0.337 N 
ATOM      5  S1  CHE B   00     21.022  69.593   4.899  0.00  0.00    -0.050 S 
ATOM      6  C9  CHE B   00     16.693  68.225   6.999  0.00  0.00    +0.068 A 
ATOM      7  H7  CHE B   00     16.066  67.449   5.312  0.00  0.00    +0.144 HD
ATOM      8  H8  CHE B   00     17.423  67.534   3.467  0.00  0.00    +0.144 HD
ENDROOT
BRANCH   6   9
ATOM      9  C10 CHE B   00     21.348  69.997   5.777  0.00  0.00    +0.081 A 
ATOM     10  C11 CHE B   00     18.520  68.535   8.375  0.00  0.00    +0.031 A 
ATOM     11  C12 CHE B   00     16.575  67.430  10.642  0.00  0.00    +0.032 A 
ATOM     12  C13 CHE B   00     18.270  68.146   9.851  0.00  0.00    +0.089 A 
ATOM     13  N3  CHE B   00     17.957  67.761  11.213  0.00  0.00    -0.253 NA
ATOM     14  C14 CHE B   00     19.681  68.477  10.475  0.00  0.00    +0.111 A 
ATOM     15  C15 CHE B   00     17.580  67.780  10.531  0.00  0.00    +0.022 A 
ATOM     16  C16 CHE B   00     17.878  68.166   9.142  0.00  0.00    +0.031 A 
ATOM     17  C17 CHE B   00     16.174  67.450   9.916  0.00  0.00    +0.090 A 
ATOM     18  N4  CHE B   00     15.671  67.475   9.006  0.00  0.00    -0.245 NA
ENDBRANCH   6   9
BRANCH   1  24
ATOM     19  C1  CHE B   00     15.008  67.675   3.509  0.00  0.00    +0.065 C 
ATOM     20  C2  CHE B   00     18.743  69.010   2.495  0.00  0.00    +0.039 A 
ATOM     21  C3  CHE B   00     18.062  68.632   3.187  0.00  0.00    +0.023 A 
ATOM     22  C4  CHE B   00     15.990  67.503   5.208  0.00  0.00    +0.004 A 
ATOM     23  C5  CHE B   00     17.890  68.165   4.758  0.00  0.00    +0.030 A 
ATOM     24  C6  CHE B   00     16.094  67.485   5.389  0.00  0.00    +0.091 A 
ATOM     25  N5  CHE B   00     20.653  69.669   2.062  0.00  0.00    -0.250 NA
ENDBRANCH   1  24
TORSDOF 2
ENDMDL
MODEL 9
REMARK VINA RESULT:     -10.2      2.172      6.283
REMARK  Name = dock_mp/CHEMBL3/CHEMBL360034.pdb
REMARK  3 active torsions:
REMARK  status: ('A' for Active; 'I' for Inactive)
REMARK    1  A    between atoms: C1_1  and  C2_2
REMARK    2  A    between atoms: C6_6  and  C7_7
REMARK    3  A    between atoms: C9_12  and  C10_13
REMARK                            x       y       z     vdW  Elec       q    Type
REMARK                         _______ _______ _______ _____ _____    ______ ____
ROOT
ATOM      1  C7  CHE B   00     17.332  68.440   4.357  0.00  0.00    +0.108 A 
ATOM      2  N1  CHE B   00     16.536  67.908   5.190  0.00  0.00    -0.223 NA
ATOM      3  C8  CHE B   00     17.016  68.397   4.328  0.00  0.00    +0.157 A 
ATOM      4  N2  CHE B   00     16.244  66.179   8.790  0.00  0.00    -0.337 N 
ATOM      5  S1  CHE B   00     18.805  69.487   2.682  0.00  0.00    -0.050 S 
ATOM      6  C9  CHE B   00     18.556  67.341   7.192  0.00  0.00    +0.068 A 
ATOM      7  H7  CHE B   00     16.622  67.075   7.011  0.00  0.00    +0.144 HD
ATOM      8  H8  CHE B   00     15.570  67.776   5.099  0.00  0.00    +0.144 HD
ENDROOT
BRANCH   6   9
ATOM      9  C10 CHE B   00     19.811  69.626   2.776  0.00  0.00    +0.081 A 
ATOM     10  C11 CHE B   00     20.171  68.945   6.812  0.00  0.00    +0.031 A 
ATOM     11  C12 CHE B   00     20.709  68.662   9.939  0.00  0.00    +0.032 A 
ATOM     12  C13 CHE B   00     20.956  69.361   8.078  0.00  0.00    +0.089 A 
ATOM     13  N3  CHE B   00     21.646  69.696   9.309  0.00  0.00    -0.253 NA
ATOM     14  C14 CHE B   00     21.938  70.433   7.464  0.00  0.00    +0.111 A 
ATOM     15  C15 CHE B   00     21.072  69.213   9.097  0.00  0.00    +0.022 A 
ATOM     16  C16 CHE B   00     20.360  68.859   7.858  0.00  0.00    +0.031 A 
ATOM     17  C17 CHE B   00     20.098  68.147   9.713  0.00  0.00    +0.090 A 
ATOM     18  N4  CHE B   00     19.332  67.503   9.431  0.00  0.00    -0.245 NA
ENDBRANCH   6   9
BRANCH   1  24
ATOM     19  C1  CHE B   00     14.768  66.208   6.570  0.00  0.00    +0.065 C 
ATOM     20  C2  CHE B   00     15.718  68.066   3.048  0.00  0.00    +0.039 A 
ATOM     21  C3  CHE B   00     15.933  67.806   4.033  0.00  0.00    +0.023 A 
ATOM     22  C4  CHE B   00     16.524  67.003   6.976  0.00  0.00    +0.004 A 
ATOM     23  C5  CHE B   00     17.057  67.958   5.229  0.00  0.00    +0.030 A 
ATOM     24  C6  CHE B   00     16.711  67.088   7.020  0.00  0.00    +0.091 A 
ATOM     25  N5  CHE B   00     16.268  69.030   1.305  0.00  0.00    -0.250 NA
ENDBRANCH   1  24
TORSDOF 2
ENDMDL
