MODEL 1
REMARK VINA RESULT:      -8.4      0.000      0.000
REMARK  Name = dock_mp/CHEMBL3/CHEMBL381532.pdb
REMARK  7 active torsions:
REMARK  status: ('A' for Active; 'I' for Inactive)
REMARK    1  A    between atoms: C1_1  and  C2_2
REMARK    2  A    between atoms: C6_6  and  C7_7
REMARK    3  A    between atoms: C12_14  and  C13_15
REMARK    4  A    between atoms: N4_21  and  C18_22
REMARK    5  A    between atoms: C18_22  and  C19_23
REMARK    6  A    between atoms: C19_23  and  C20_24
REMARK    7  A    between atoms: C20_24  and  N5_25
REMARK                            x       y       z     vdW  Elec       q    Type
REMARK                         _______ _______ _______ _____ _____    ______ ____
ROOT
ATOM      1  C13 CHE B   05     20.440  67.555  13.927  0.00  0.00    -0.012 A 
ATOM      2  C14 CHE B   05     23.102  68.919  13.683  0.00  0.00    +0.011 A 
ATOM      3  C15 CHE B   05     22.759  69.370  12.776  0.00  0.00    +0.030 A 
ATOM      4  C16 CHE B   05     23.268  70.324  11.691  0.00  0.00    +0.089 A 
ATOM      5  N3  CHE B   05     22.896  70.814  10.707  0.00  0.00    -0.236 NA
ATOM      6  C17 CHE B   05     16.488  67.893  10.753  0.00  0.00    +0.200 A 
ATOM      7  N4  CHE B   05     17.566  68.095  11.178  0.00  0.00    -0.330 N 
ATOM      8  C25 CHE B   05     20.599  68.969  11.918  0.00  0.00    +0.069 A 
ATOM      9  C26 CHE B   05     25.341  70.839  12.320  0.00  0.00    +0.036 A 
ENDROOT
BRANCH   1  17
ATOM     10  C7  CHE B   05     22.992  67.352  15.130  0.00  0.00    +0.119 A 
ATOM     11  N1  CHE B   05     20.073  64.529  15.742  0.00  0.00    -0.169 NA
ATOM     12  N2  CHE B   05     22.456  66.360  15.551  0.00  0.00    -0.267 N 
ATOM     13  C8  CHE B   05     26.031  68.214  15.845  0.00  0.00    +0.144 C 
ATOM     14  C9  CHE B   05     20.711  65.371  15.462  0.00  0.00    +0.029 C 
ATOM     15  C10 CHE B   05     20.179  66.157  14.727  0.00  0.00    +0.057 C 
ATOM     16  C11 CHE B   05     20.321  65.947  14.923  0.00  0.00    +0.048 A 
ATOM     17  C12 CHE B   05     23.448  68.463  14.599  0.00  0.00    +0.032 A 
BRANCH  10  23
ATOM     18  C1  CHE B   05     23.283  66.696  18.202  0.00  0.00    +0.065 C 
ATOM     19  C2  CHE B   05     22.752  67.481  17.468  0.00  0.00    +0.039 A 
ATOM     20  C3  CHE B   05     21.931  68.581  17.669  0.00  0.00    +0.023 A 
ATOM     21  C4  CHE B   05     21.444  69.301  16.996  0.00  0.00    +0.004 A 
ATOM     22  C5  CHE B   05     24.150  66.093  11.392  0.00  0.00    +0.030 A 
ATOM     23  C6  CHE B   05     23.001  67.339  15.142  0.00  0.00    +0.092 A 
ATOM     24  N6  CHE B   05     23.475  66.639  15.797  0.00  0.00    -0.250 NA
ENDBRANCH  10  23
ENDBRANCH   1  17
BRANCH   7  25
ATOM     25  C18 CHE B   05     21.808  70.624  10.257  0.00  0.00    +0.121 C 
BRANCH  25  26
ATOM     26  C19 CHE B   05     18.677  68.044  10.092  0.00  0.00    +0.003 C 
BRANCH  26  27
ATOM     27  C20 CHE B   05     17.361  66.260   9.351  0.00  0.00    -0.077 C 
BRANCH  27  28
ATOM     28  N5  CHE B   05     18.691  67.389   7.887  0.00  0.00    +0.383 N 
ATOM     29  C21 CHE B   05     19.461  67.879   7.398  0.00  0.00    -0.050 C 
ATOM     30  C22 CHE B   05     16.383  66.949   7.088  0.00  0.00    +0.141 C 
ATOM     31  O1  CHE B   05     23.095  70.485   4.450  0.00  0.00    -0.383 OA
ATOM     32  C23 CHE B   05     16.878  67.633   5.962  0.00  0.00    +0.141 C 
ATOM     33  C24 CHE B   05     17.371  67.286   7.103  0.00  0.00    -0.050 C 
ATOM     34  H22 CHE B   05     16.967  66.537   8.440  0.00  0.00    -0.082 HD
ENDBRANCH  27  28
ENDBRANCH  26  27
ENDBRANCH  25  26
ENDBRANCH   7  25
TORSDOF 6
ENDMDL
MODEL 2
REMARK VINA RESULT:      -8.1      0.830      2.241
REMARK  Name = dock_mp/CHEMBL3/CHEMBL381532.pdb
REMARK  7 active torsions:
REMARK  status: ('A' for Active; 'I' for Inactive)
REMARK    1  A    between atoms: C1_1  and  C2_2
REMARK    2  A    between atoms: C6_6  and  C7_7
REMARK    3  A    between atoms: C12_14  and  C13_15
REMARK    4  A    between atoms: N4_21  and  C18_22
REMARK    5  A    between atoms: C18_22  and  C19_23
REMARK    6  A    between atoms: C19_23  and  C20_24
REMARK    7  A    between atoms: C20_24  and  N5_25
REMARK                            x       y       z     vdW  Elec       q    Type
REMARK                         _______ _______ _______ _____ _____    ______ ____
ROOT
ATOM      1  C13 CHE B   05     20.455  67.423  13.916  0.00  0.00    -0.012 A 
ATOM      2  C14 CHE B   05     23.118  68.790  13.713  0.00  0.00    +0.011 A 
ATOM      3  C15 CHE B   05     22.766  69.293  12.837  0.00  0.00    +0.030 A 
ATOM      4  C16 CHE B   05     23.263  70.304  11.800  0.00  0.00    +0.089 A 
ATOM      5  N3  CHE B   05     22.881  70.849  10.850  0.00  0.00    -0.236 NA
ATOM      6  C17 CHE B   05     16.463  67.947  10.818  0.00  0.00    +0.200 A 
ATOM      7  N4  CHE B   05     17.547  68.123  11.240  0.00  0.00    -0.330 N 
ATOM      8  C25 CHE B   05     20.593  68.946  11.987  0.00  0.00    +0.069 A 
ATOM      9  C26 CHE B   05     25.346  70.778  12.429  0.00  0.00    +0.036 A 
ENDROOT
BRANCH   1  17
ATOM     10  C7  CHE B   05     22.971  67.227  15.193  0.00  0.00    +0.119 A 
ATOM     11  N1  CHE B   05     19.951  64.544  15.927  0.00  0.00    -0.169 NA
ATOM     12  N2  CHE B   05     22.395  66.284  15.668  0.00  0.00    -0.267 N 
ATOM     13  C8  CHE B   05     26.019  68.044  15.921  0.00  0.00    +0.144 C 
ATOM     14  C9  CHE B   05     20.621  65.344  15.605  0.00  0.00    +0.029 C 
ATOM     15  C10 CHE B   05     20.132  66.092  14.805  0.00  0.00    +0.057 C 
ATOM     16  C11 CHE B   05     20.262  65.893  15.018  0.00  0.00    +0.048 A 
ATOM     17  C12 CHE B   05     23.475  68.283  14.598  0.00  0.00    +0.032 A 
BRANCH  10  23
ATOM     18  C1  CHE B   05     24.672  64.574  15.330  0.00  0.00    +0.065 C 
ATOM     19  C2  CHE B   05     24.183  65.322  14.530  0.00  0.00    +0.039 A 
ATOM     20  C3  CHE B   05     24.144  65.355  13.144  0.00  0.00    +0.023 A 
ATOM     21  C4  CHE B   05     23.695  66.041  12.411  0.00  0.00    +0.004 A 
ATOM     22  C5  CHE B   05     21.173  70.084  17.540  0.00  0.00    +0.030 A 
ATOM     23  C6  CHE B   05     22.980  67.215  15.206  0.00  0.00    +0.092 A 
ATOM     24  N6  CHE B   05     23.416  66.548  15.920  0.00  0.00    -0.250 NA
ENDBRANCH  10  23
ENDBRANCH   1  17
BRANCH   7  25
ATOM     25  C18 CHE B   05     21.786  70.687  10.404  0.00  0.00    +0.121 C 
BRANCH  25  26
ATOM     26  C19 CHE B   05     18.669  68.095  10.164  0.00  0.00    +0.003 C 
BRANCH  26  27
ATOM     27  C20 CHE B   05     17.403  66.273   9.429  0.00  0.00    -0.077 C 
BRANCH  27  28
ATOM     28  N5  CHE B   05     18.776  67.373   7.983  0.00  0.00    +0.383 N 
ATOM     29  C21 CHE B   05     19.562  67.848   7.504  0.00  0.00    -0.050 C 
ATOM     30  C22 CHE B   05     16.473  66.972   7.149  0.00  0.00    +0.141 C 
ATOM     31  O1  CHE B   05     23.288  70.378   4.605  0.00  0.00    -0.383 OA
ATOM     32  C23 CHE B   05     16.997  67.643   6.029  0.00  0.00    +0.141 C 
ATOM     33  C24 CHE B   05     17.466  67.291   7.178  0.00  0.00    -0.050 C 
ATOM     34  H22 CHE B   05     17.028  66.554   8.512  0.00  0.00    -0.082 HD
ENDBRANCH  27  28
ENDBRANCH  26  27
ENDBRANCH  25  26
ENDBRANCH   7  25
TORSDOF 6
ENDMDL
MODEL 3
REMARK VINA RESULT:      -7.9      3.947      8.789
REMARK  Name = dock_mp/CHEMBL3/CHEMBL381532.pdb
REMARK  7 active torsions:
REMARK  status: ('A' for Active; 'I' for Inactive)
REMARK    1  A    between atoms: C1_1  and  C2_2
REMARK    2  A    between atoms: C6_6  and  C7_7
REMARK    3  A    between atoms: C12_14  and  C13_15
REMARK    4  A    between atoms: N4_21  and  C18_22
REMARK    5  A    between atoms: C18_22  and  C19_23
REMARK    6  A    between atoms: C19_23  and  C20_24
REMARK    7  A    between atoms: C20_24  and  N5_25
REMARK                            x       y       z     vdW  Elec       q    Type
REMARK                         _______ _______ _______ _____ _____    ______ ____
ROOT
ATOM      1  C13 CHE B   05     23.247  68.522   8.071  0.00  0.00    -0.012 A 
ATOM      2  C14 CHE B   05     22.195  67.831  10.795  0.00  0.00    +0.011 A 
ATOM      3  C15 CHE B   05     23.171  67.479  11.056  0.00  0.00    +0.030 A 
ATOM      4  C16 CHE B   05     23.901  66.860  12.252  0.00  0.00    +0.089 A 
ATOM      5  N3  CHE B   05     24.959  66.479  12.534  0.00  0.00    -0.236 NA
ATOM      6  C17 CHE B   05     27.977  67.889   6.329  0.00  0.00    +0.200 A 
ATOM      7  N4  CHE B   05     27.082  67.855   7.091  0.00  0.00    -0.330 N 
ATOM      8  C25 CHE B   05     24.971  67.545   9.533  0.00  0.00    +0.069 A 
ATOM      9  C26 CHE B   05     22.347  66.706  13.840  0.00  0.00    +0.036 A 
ENDROOT
BRANCH   1  17
ATOM     10  C7  CHE B   05     20.956  69.100   9.626  0.00  0.00    +0.119 A 
ATOM     11  N1  CHE B   05     21.811  71.152   6.172  0.00  0.00    -0.169 NA
ATOM     12  N2  CHE B   05     20.839  69.898   8.732  0.00  0.00    -0.267 N 
ATOM     13  C8  CHE B   05     18.865  68.810  12.082  0.00  0.00    +0.144 C 
ATOM     14  C9  CHE B   05     21.754  70.504   7.050  0.00  0.00    +0.029 C 
ATOM     15  C10 CHE B   05     22.661  69.723   7.134  0.00  0.00    +0.057 C 
ATOM     16  C11 CHE B   05     22.420  69.931   7.112  0.00  0.00    +0.048 A 
ATOM     17  C12 CHE B   05     21.209  68.186  10.532  0.00  0.00    +0.032 A 
BRANCH  10  23
ATOM     18  C1  CHE B   05     18.041  69.336   8.442  0.00  0.00    +0.065 C 
ATOM     19  C2  CHE B   05     18.948  68.555   8.526  0.00  0.00    +0.039 A 
ATOM     20  C3  CHE B   05     19.139  67.254   8.087  0.00  0.00    +0.023 A 
ATOM     21  C4  CHE B   05     19.971  66.538   8.164  0.00  0.00    +0.004 A 
ATOM     22  C5  CHE B   05     23.815  71.187  11.718  0.00  0.00    +0.030 A 
ATOM     23  C6  CHE B   05     20.941  69.113   9.624  0.00  0.00    +0.092 A 
ATOM     24  N6  CHE B   05     20.132  69.810   9.550  0.00  0.00    -0.250 NA
ENDBRANCH  10  23
ENDBRANCH   1  17
BRANCH   7  25
ATOM     25  C18 CHE B   05     25.882  66.504  11.779  0.00  0.00    +0.121 C 
BRANCH  25  26
ATOM     26  C19 CHE B   05     27.021  68.567   8.472  0.00  0.00    +0.003 C 
BRANCH  26  27
ATOM     27  C20 CHE B   05     27.529  70.402   7.117  0.00  0.00    -0.077 C 
BRANCH  27  28
ATOM     28  N5  CHE B   05     27.273  70.672   9.364  0.00  0.00    +0.383 N 
ATOM     29  C21 CHE B   05     27.059  70.572  10.372  0.00  0.00    -0.050 C 
ATOM     30  C22 CHE B   05     28.328  72.586   8.188  0.00  0.00    +0.141 C 
ATOM     31  O1  CHE B   05     26.169  70.558  15.654  0.00  0.00    -0.383 OA
ATOM     32  C23 CHE B   05     28.339  73.100   9.497  0.00  0.00    +0.141 C 
ATOM     33  C24 CHE B   05     27.936  72.000   8.958  0.00  0.00    -0.050 C 
ATOM     34  H22 CHE B   05     27.850  71.281   7.548  0.00  0.00    -0.082 HD
ENDBRANCH  27  28
ENDBRANCH  26  27
ENDBRANCH  25  26
ENDBRANCH   7  25
TORSDOF 6
ENDMDL
MODEL 4
REMARK VINA RESULT:      -7.8      2.235      3.102
REMARK  Name = dock_mp/CHEMBL3/CHEMBL381532.pdb
REMARK  7 active torsions:
REMARK  status: ('A' for Active; 'I' for Inactive)
REMARK    1  A    between atoms: C1_1  and  C2_2
REMARK    2  A    between atoms: C6_6  and  C7_7
REMARK    3  A    between atoms: C12_14  and  C13_15
REMARK    4  A    between atoms: N4_21  and  C18_22
REMARK    5  A    between atoms: C18_22  and  C19_23
REMARK    6  A    between atoms: C19_23  and  C20_24
REMARK    7  A    between atoms: C20_24  and  N5_25
REMARK                            x       y       z     vdW  Elec       q    Type
REMARK                         _______ _______ _______ _____ _____    ______ ____
ROOT
ATOM      1  C13 CHE B   05     21.179  67.842  12.271  0.00  0.00    -0.012 A 
ATOM      2  C14 CHE B   05     23.844  68.361  10.993  0.00  0.00    +0.011 A 
ATOM      3  C15 CHE B   05     23.333  68.610  10.087  0.00  0.00    +0.030 A 
ATOM      4  C16 CHE B   05     23.656  69.057   8.658  0.00  0.00    +0.089 A 
ATOM      5  N3  CHE B   05     23.102  69.327   7.675  0.00  0.00    -0.236 NA
ATOM      6  C17 CHE B   05     16.589  68.259  10.134  0.00  0.00    +0.200 A 
ATOM      7  N4  CHE B   05     17.762  68.293  10.214  0.00  0.00    -0.330 N 
ATOM      8  C25 CHE B   05     20.981  68.543   9.919  0.00  0.00    +0.069 A 
ATOM      9  C26 CHE B   05     25.879  69.187   8.597  0.00  0.00    +0.036 A 
ENDROOT
BRANCH   1  17
ATOM     10  C7  CHE B   05     23.829  68.426  13.067  0.00  0.00    +0.119 A 
ATOM     11  N1  CHE B   05     20.647  68.877  15.622  0.00  0.00    -0.169 NA
ATOM     12  N2  CHE B   05     23.222  68.682  14.074  0.00  0.00    -0.267 N 
ATOM     13  C8  CHE B   05     27.041  68.717  12.763  0.00  0.00    +0.144 C 
ATOM     14  C9  CHE B   05     21.353  68.696  14.809  0.00  0.00    +0.029 C 
ATOM     15  C10 CHE B   05     20.838  68.302  13.799  0.00  0.00    +0.057 C 
ATOM     16  C11 CHE B   05     20.975  68.407  14.069  0.00  0.00    +0.048 A 
ATOM     17  C12 CHE B   05     24.360  68.111  11.908  0.00  0.00    +0.032 A 
BRANCH  10  23
ATOM     18  C1  CHE B   05     25.086  67.340  15.749  0.00  0.00    +0.065 C 
ATOM     19  C2  CHE B   05     24.570  66.946  14.740  0.00  0.00    +0.039 A 
ATOM     20  C3  CHE B   05     24.262  65.688  14.247  0.00  0.00    +0.023 A 
ATOM     21  C4  CHE B   05     23.789  65.327  13.322  0.00  0.00    +0.004 A 
ATOM     22  C5  CHE B   05     23.006  71.888  11.007  0.00  0.00    +0.030 A 
ATOM     23  C6  CHE B   05     23.838  68.433  13.083  0.00  0.00    +0.092 A 
ATOM     24  N6  CHE B   05     24.298  68.784  13.984  0.00  0.00    -0.250 NA
ENDBRANCH  10  23
ENDBRANCH   1  17
BRANCH   7  25
ATOM     25  C18 CHE B   05     21.914  69.299   7.570  0.00  0.00    +0.121 C 
BRANCH  25  26
ATOM     26  C19 CHE B   05     18.382  67.784   8.882  0.00  0.00    +0.003 C 
BRANCH  26  27
ATOM     27  C20 CHE B   05     16.495  66.407   8.955  0.00  0.00    -0.077 C 
BRANCH  27  28
ATOM     28  N5  CHE B   05     17.289  67.160   6.958  0.00  0.00    +0.383 N 
ATOM     29  C21 CHE B   05     17.830  67.591   6.187  0.00  0.00    -0.050 C 
ATOM     30  C22 CHE B   05     15.151  65.905   6.835  0.00  0.00    +0.141 C 
ATOM     31  O1  CHE B   05     20.235  69.633   1.859  0.00  0.00    -0.383 OA
ATOM     32  C23 CHE B   05     15.314  66.195   5.468  0.00  0.00    +0.141 C 
ATOM     33  C24 CHE B   05     15.991  66.447   6.536  0.00  0.00    -0.050 C 
ATOM     34  H22 CHE B   05     15.954  66.205   8.102  0.00  0.00    -0.082 HD
ENDBRANCH  27  28
ENDBRANCH  26  27
ENDBRANCH  25  26
ENDBRANCH   7  25
TORSDOF 6
ENDMDL
MODEL 5
REMARK VINA RESULT:      -7.8      4.622      8.765
REMARK  Name = dock_mp/CHEMBL3/CHEMBL381532.pdb
REMARK  7 active torsions:
REMARK  status: ('A' for Active; 'I' for Inactive)
REMARK    1  A    between atoms: C1_1  and  C2_2
REMARK    2  A    between atoms: C6_6  and  C7_7
REMARK    3  A    between atoms: C12_14  and  C13_15
REMARK    4  A    between atoms: N4_21  and  C18_22
REMARK    5  A    between atoms: C18_22  and  C19_23
REMARK    6  A    between atoms: C19_23  and  C20_24
REMARK    7  A    between atoms: C20_24  and  N5_25
REMARK                            x       y       z     vdW  Elec       q    Type
REMARK                         _______ _______ _______ _____ _____    ______ ____
ROOT
ATOM      1  C13 CHE B   05     23.303  68.538   8.095  0.00  0.00    -0.012 A 
ATOM      2  C14 CHE B   05     22.171  67.828  10.782  0.00  0.00    +0.011 A 
ATOM      3  C15 CHE B   05     23.144  67.491  11.074  0.00  0.00    +0.030 A 
ATOM      4  C16 CHE B   05     23.842  66.881  12.293  0.00  0.00    +0.089 A 
ATOM      5  N3  CHE B   05     24.896  66.515  12.610  0.00  0.00    -0.236 NA
ATOM      6  C17 CHE B   05     28.097  67.977   6.509  0.00  0.00    +0.200 A 
ATOM      7  N4  CHE B   05     27.177  67.929   7.242  0.00  0.00    -0.330 N 
ATOM      8  C25 CHE B   05     24.992  67.585   9.612  0.00  0.00    +0.069 A 
ATOM      9  C26 CHE B   05     22.239  66.702  13.830  0.00  0.00    +0.036 A 
ENDROOT
BRANCH   1  17
ATOM     10  C7  CHE B   05     20.967  69.099   9.588  0.00  0.00    +0.119 A 
ATOM     11  N1  CHE B   05     21.932  71.203   6.196  0.00  0.00    -0.169 NA
ATOM     12  N2  CHE B   05     20.879  69.911   8.704  0.00  0.00    -0.267 N 
ATOM     13  C8  CHE B   05     18.801  68.775  11.974  0.00  0.00    +0.144 C 
ATOM     14  C9  CHE B   05     21.847  70.541   7.061  0.00  0.00    +0.029 C 
ATOM     15  C10 CHE B   05     22.749  69.756   7.160  0.00  0.00    +0.057 C 
ATOM     16  C11 CHE B   05     22.508  69.965   7.133  0.00  0.00    +0.048 A 
ATOM     17  C12 CHE B   05     21.190  68.169  10.487  0.00  0.00    +0.032 A 
BRANCH  10  23
ATOM     18  C1  CHE B   05     18.062  69.338   8.380  0.00  0.00    +0.065 C 
ATOM     19  C2  CHE B   05     18.964  68.553   8.479  0.00  0.00    +0.039 A 
ATOM     20  C3  CHE B   05     19.151  67.246   8.054  0.00  0.00    +0.023 A 
ATOM     21  C4  CHE B   05     19.978  66.527   8.145  0.00  0.00    +0.004 A 
ATOM     22  C5  CHE B   05     23.821  71.191  11.680  0.00  0.00    +0.030 A 
ATOM     23  C6  CHE B   05     20.952  69.112   9.586  0.00  0.00    +0.092 A 
ATOM     24  N6  CHE B   05     20.147  69.812   9.498  0.00  0.00    -0.250 NA
ENDBRANCH  10  23
ENDBRANCH   1  17
BRANCH   7  25
ATOM     25  C18 CHE B   05     25.843  66.554  11.886  0.00  0.00    +0.121 C 
BRANCH  25  26
ATOM     26  C19 CHE B   05     26.848  66.586   7.952  0.00  0.00    +0.003 C 
BRANCH  26  27
ATOM     27  C20 CHE B   05     27.084  65.816   5.757  0.00  0.00    -0.077 C 
BRANCH  27  28
ATOM     28  N5  CHE B   05     26.992  64.338   7.487  0.00  0.00    +0.383 N 
ATOM     29  C21 CHE B   05     26.787  63.823   8.362  0.00  0.00    -0.050 C 
ATOM     30  C22 CHE B   05     28.562  63.728   5.665  0.00  0.00    +0.141 C 
ATOM     31  O1  CHE B   05     26.090  60.783  12.717  0.00  0.00    -0.383 OA
ATOM     32  C23 CHE B   05     28.773  62.626   6.514  0.00  0.00    +0.141 C 
ATOM     33  C24 CHE B   05     28.028  63.678   6.560  0.00  0.00    -0.050 C 
ATOM     34  H22 CHE B   05     27.679  64.976   5.720  0.00  0.00    -0.082 HD
ENDBRANCH  27  28
ENDBRANCH  26  27
ENDBRANCH  25  26
ENDBRANCH   7  25
TORSDOF 6
ENDMDL
MODEL 6
REMARK VINA RESULT:      -7.3      2.755      4.489
REMARK  Name = dock_mp/CHEMBL3/CHEMBL381532.pdb
REMARK  7 active torsions:
REMARK  status: ('A' for Active; 'I' for Inactive)
REMARK    1  A    between atoms: C1_1  and  C2_2
REMARK    2  A    between atoms: C6_6  and  C7_7
REMARK    3  A    between atoms: C12_14  and  C13_15
REMARK    4  A    between atoms: N4_21  and  C18_22
REMARK    5  A    between atoms: C18_22  and  C19_23
REMARK    6  A    between atoms: C19_23  and  C20_24
REMARK    7  A    between atoms: C20_24  and  N5_25
REMARK                            x       y       z     vdW  Elec       q    Type
REMARK                         _______ _______ _______ _____ _____    ______ ____
ROOT
ATOM      1  C13 CHE B   05     23.155  66.897  11.487  0.00  0.00    -0.012 A 
ATOM      2  C14 CHE B   05     25.542  67.689   9.851  0.00  0.00    +0.011 A 
ATOM      3  C15 CHE B   05     24.885  68.220   9.195  0.00  0.00    +0.030 A 
ATOM      4  C16 CHE B   05     24.954  69.072   7.924  0.00  0.00    +0.089 A 
ATOM      5  N3  CHE B   05     24.242  69.648   7.213  0.00  0.00    -0.236 NA
ATOM      6  C17 CHE B   05     18.292  68.108  10.653  0.00  0.00    +0.200 A 
ATOM      7  N4  CHE B   05     19.454  68.075  10.473  0.00  0.00    -0.330 N 
ATOM      8  C25 CHE B   05     22.554  68.290   9.548  0.00  0.00    +0.069 A 
ATOM      9  C26 CHE B   05     27.119  69.136   7.405  0.00  0.00    +0.036 A 
ENDROOT
BRANCH   1  17
ATOM     10  C7  CHE B   05     25.968  66.767  11.745  0.00  0.00    +0.119 A 
ATOM     11  N1  CHE B   05     23.457  65.828  14.856  0.00  0.00    -0.169 NA
ATOM     12  N2  CHE B   05     25.617  66.426  12.845  0.00  0.00    -0.267 N 
ATOM     13  C8  CHE B   05     29.064  67.005  10.823  0.00  0.00    +0.144 C 
ATOM     14  C9  CHE B   05     23.954  66.113  13.926  0.00  0.00    +0.029 C 
ATOM     15  C10 CHE B   05     23.195  66.405  13.043  0.00  0.00    +0.057 C 
ATOM     16  C11 CHE B   05     23.398  66.327  13.278  0.00  0.00    +0.048 A 
ATOM     17  C12 CHE B   05     26.206  67.152  10.513  0.00  0.00    +0.032 A 
BRANCH  10  23
ATOM     18  C1  CHE B   05     27.585  64.296  12.855  0.00  0.00    +0.065 C 
ATOM     19  C2  CHE B   05     26.826  64.588  11.972  0.00  0.00    +0.039 A 
ATOM     20  C3  CHE B   05     26.257  63.883  10.924  0.00  0.00    +0.023 A 
ATOM     21  C4  CHE B   05     25.561  64.150  10.114  0.00  0.00    +0.004 A 
ATOM     22  C5  CHE B   05     25.219  70.753  12.416  0.00  0.00    +0.030 A 
ATOM     23  C6  CHE B   05     25.981  66.762  11.760  0.00  0.00    +0.092 A 
ATOM     24  N6  CHE B   05     26.657  66.502  12.547  0.00  0.00    -0.250 NA
ENDBRANCH  10  23
ENDBRANCH   1  17
BRANCH   7  25
ATOM     25  C18 CHE B   05     23.061  69.696   7.374  0.00  0.00    +0.121 C 
BRANCH  25  26
ATOM     26  C19 CHE B   05     19.832  67.833   8.985  0.00  0.00    +0.003 C 
BRANCH  26  27
ATOM     27  C20 CHE B   05     17.947  66.457   9.106  0.00  0.00    -0.077 C 
BRANCH  27  28
ATOM     28  N5  CHE B   05     18.613  67.315   7.105  0.00  0.00    +0.383 N 
ATOM     29  C21 CHE B   05     19.138  67.682   6.291  0.00  0.00    -0.050 C 
ATOM     30  C22 CHE B   05     16.160  67.039   7.368  0.00  0.00    +0.141 C 
ATOM     31  O1  CHE B   05     21.366  69.646   1.833  0.00  0.00    -0.383 OA
ATOM     32  C23 CHE B   05     16.183  67.569   6.064  0.00  0.00    +0.141 C 
ATOM     33  C24 CHE B   05     17.083  67.276   6.941  0.00  0.00    -0.050 C 
ATOM     34  H22 CHE B   05     17.228  66.691   8.407  0.00  0.00    -0.082 HD
ENDBRANCH  27  28
ENDBRANCH  26  27
ENDBRANCH  25  26
ENDBRANCH   7  25
TORSDOF 6
ENDMDL
MODEL 7
REMARK VINA RESULT:      -7.2      2.442      3.451
REMARK  Name = dock_mp/CHEMBL3/CHEMBL381532.pdb
REMARK  7 active torsions:
REMARK  status: ('A' for Active; 'I' for Inactive)
REMARK    1  A    between atoms: C1_1  and  C2_2
REMARK    2  A    between atoms: C6_6  and  C7_7
REMARK    3  A    between atoms: C12_14  and  C13_15
REMARK    4  A    between atoms: N4_21  and  C18_22
REMARK    5  A    between atoms: C18_22  and  C19_23
REMARK    6  A    between atoms: C19_23  and  C20_24
REMARK    7  A    between atoms: C20_24  and  N5_25
REMARK                            x       y       z     vdW  Elec       q    Type
REMARK                         _______ _______ _______ _____ _____    ______ ____
ROOT
ATOM      1  C13 CHE B   05     21.465  67.919  11.442  0.00  0.00    -0.012 A 
ATOM      2  C14 CHE B   05     24.435  68.215  11.138  0.00  0.00    +0.011 A 
ATOM      3  C15 CHE B   05     24.273  68.560  10.139  0.00  0.00    +0.030 A 
ATOM      4  C16 CHE B   05     25.085  69.041   8.932  0.00  0.00    +0.089 A 
ATOM      5  N3  CHE B   05     24.909  69.415   7.848  0.00  0.00    -0.236 NA
ATOM      6  C17 CHE B   05     17.884  68.923   7.980  0.00  0.00    +0.200 A 
ATOM      7  N4  CHE B   05     18.965  68.829   8.436  0.00  0.00    -0.330 N 
ATOM      8  C25 CHE B   05     22.111  68.751   9.217  0.00  0.00    +0.069 A 
ATOM      9  C26 CHE B   05     27.206  68.937   9.602  0.00  0.00    +0.036 A 
ENDROOT
BRANCH   1  17
ATOM     10  C7  CHE B   05     23.748  68.212  13.085  0.00  0.00    +0.119 A 
ATOM     11  N1  CHE B   05     19.957  68.938  14.487  0.00  0.00    -0.169 NA
ATOM     12  N2  CHE B   05     22.869  68.510  13.852  0.00  0.00    -0.267 N 
ATOM     13  C8  CHE B   05     26.893  68.179  13.857  0.00  0.00    +0.144 C 
ATOM     14  C9  CHE B   05     20.872  68.701  13.939  0.00  0.00    +0.029 C 
ATOM     15  C10 CHE B   05     20.683  68.382  12.798  0.00  0.00    +0.057 C 
ATOM     16  C11 CHE B   05     20.733  68.467  13.102  0.00  0.00    +0.048 A 
ATOM     17  C12 CHE B   05     24.599  67.866  12.148  0.00  0.00    +0.032 A 
BRANCH  10  23
ATOM     18  C1  CHE B   05     24.194  66.934  15.935  0.00  0.00    +0.065 C 
ATOM     19  C2  CHE B   05     24.006  66.614  14.794  0.00  0.00    +0.039 A 
ATOM     20  C3  CHE B   05     23.886  65.395  14.145  0.00  0.00    +0.023 A 
ATOM     21  C4  CHE B   05     23.713  65.102  13.099  0.00  0.00    +0.004 A 
ATOM     22  C5  CHE B   05     23.473  71.815  11.124  0.00  0.00    +0.030 A 
ATOM     23  C6  CHE B   05     23.751  68.218  13.104  0.00  0.00    +0.092 A 
ATOM     24  N6  CHE B   05     23.919  68.502  14.122  0.00  0.00    -0.250 NA
ENDBRANCH  10  23
ENDBRANCH   1  17
BRANCH   7  25
ATOM     25  C18 CHE B   05     23.824  69.519   7.364  0.00  0.00    +0.121 C 
BRANCH  25  26
ATOM     26  C19 CHE B   05     19.912  68.435   7.269  0.00  0.00    +0.003 C 
BRANCH  26  27
ATOM     27  C20 CHE B   05     17.959  67.386   6.527  0.00  0.00    -0.077 C 
BRANCH  27  28
ATOM     28  N5  CHE B   05     19.422  68.279   5.027  0.00  0.00    +0.383 N 
ATOM     29  C21 CHE B   05     20.241  68.679   4.534  0.00  0.00    -0.050 C 
ATOM     30  C22 CHE B   05     17.151  67.822   4.137  0.00  0.00    +0.141 C 
ATOM     31  O1  CHE B   05     24.152  70.777   1.536  0.00  0.00    -0.383 OA
ATOM     32  C23 CHE B   05     17.742  68.344   2.972  0.00  0.00    +0.141 C 
ATOM     33  C24 CHE B   05     18.149  68.125   4.176  0.00  0.00    -0.050 C 
ATOM     34  H22 CHE B   05     17.634  67.561   5.565  0.00  0.00    -0.082 HD
ENDBRANCH  27  28
ENDBRANCH  26  27
ENDBRANCH  25  26
ENDBRANCH   7  25
TORSDOF 6
ENDMDL
MODEL 8
REMARK VINA RESULT:      -7.2      4.681      7.652
REMARK  Name = dock_mp/CHEMBL3/CHEMBL381532.pdb
REMARK  7 active torsions:
REMARK  status: ('A' for Active; 'I' for Inactive)
REMARK    1  A    between atoms: C1_1  and  C2_2
REMARK    2  A    between atoms: C6_6  and  C7_7
REMARK    3  A    between atoms: C12_14  and  C13_15
REMARK    4  A    between atoms: N4_21  and  C18_22
REMARK    5  A    between atoms: C18_22  and  C19_23
REMARK    6  A    between atoms: C19_23  and  C20_24
REMARK    7  A    between atoms: C20_24  and  N5_25
REMARK                            x       y       z     vdW  Elec       q    Type
REMARK                         _______ _______ _______ _____ _____    ______ ____
ROOT
ATOM      1  C13 CHE B   05     24.277  69.447   9.602  0.00  0.00    -0.012 A 
ATOM      2  C14 CHE B   05     24.332  67.029  11.379  0.00  0.00    +0.011 A 
ATOM      3  C15 CHE B   05     25.300  66.795  10.989  0.00  0.00    +0.030 A 
ATOM      4  C16 CHE B   05     26.390  65.731  11.150  0.00  0.00    +0.089 A 
ATOM      5  N3  CHE B   05     27.440  65.478  10.727  0.00  0.00    -0.236 NA
ATOM      6  C17 CHE B   05     27.870  70.984   6.357  0.00  0.00    +0.200 A 
ATOM      7  N4  CHE B   05     27.349  70.309   7.167  0.00  0.00    -0.330 N 
ATOM      8  C25 CHE B   05     26.353  68.144   9.366  0.00  0.00    +0.069 A 
ATOM      9  C26 CHE B   05     25.582  64.323  12.675  0.00  0.00    +0.036 A 
ENDROOT
BRANCH   1  17
ATOM     10  C7  CHE B   05     22.835  68.469  11.830  0.00  0.00    +0.119 A 
ATOM     11  N1  CHE B   05     22.414  72.330  10.497  0.00  0.00    -0.169 NA
ATOM     12  N2  CHE B   05     22.436  69.603  11.774  0.00  0.00    -0.267 N 
ATOM     13  C8  CHE B   05     21.865  66.314  14.045  0.00  0.00    +0.144 C 
ATOM     14  C9  CHE B   05     22.658  71.284  10.699  0.00  0.00    +0.029 C 
ATOM     15  C10 CHE B   05     23.463  70.821   9.939  0.00  0.00    +0.057 C 
ATOM     16  C11 CHE B   05     23.248  70.944  10.141  0.00  0.00    +0.048 A 
ATOM     17  C12 CHE B   05     23.354  67.265  11.773  0.00  0.00    +0.032 A 
BRANCH  10  23
ATOM     18  C1  CHE B   05     19.735  69.000  12.077  0.00  0.00    +0.065 C 
ATOM     19  C2  CHE B   05     20.539  68.536  11.317  0.00  0.00    +0.039 A 
ATOM     20  C3  CHE B   05     20.451  67.959  10.060  0.00  0.00    +0.023 A 
ATOM     21  C4  CHE B   05     21.188  67.534   9.363  0.00  0.00    +0.004 A 
ATOM     22  C5  CHE B   05     26.400  68.925  13.826  0.00  0.00    +0.030 A 
ATOM     23  C6  CHE B   05     22.822  68.476  11.843  0.00  0.00    +0.092 A 
ATOM     24  N6  CHE B   05     22.104  68.890  12.521  0.00  0.00    -0.250 NA
ENDBRANCH  10  23
ENDBRANCH   1  17
BRANCH   7  25
ATOM     25  C18 CHE B   05     27.989  66.147   9.907  0.00  0.00    +0.121 C 
BRANCH  25  26
ATOM     26  C19 CHE B   05     26.969  68.809   7.015  0.00  0.00    +0.003 C 
BRANCH  26  27
ATOM     27  C20 CHE B   05     25.905  69.663   5.117  0.00  0.00    -0.077 C 
BRANCH  27  28
ATOM     28  N5  CHE B   05     26.682  67.522   5.130  0.00  0.00    +0.383 N 
ATOM     29  C21 CHE B   05     27.012  66.572   5.377  0.00  0.00    -0.050 C 
ATOM     30  C22 CHE B   05     26.456  68.546   2.880  0.00  0.00    +0.141 C 
ATOM     31  O1  CHE B   05     28.783  61.571   6.113  0.00  0.00    -0.383 OA
ATOM     32  C23 CHE B   05     26.941  67.281   2.498  0.00  0.00    +0.141 C 
ATOM     33  C24 CHE B   05     26.663  67.844   3.625  0.00  0.00    -0.050 C 
ATOM     34  H22 CHE B   05     26.127  69.213   4.217  0.00  0.00    -0.082 HD
ENDBRANCH  27  28
ENDBRANCH  26  27
ENDBRANCH  25  26
ENDBRANCH   7  25
TORSDOF 6
ENDMDL
MODEL 9
REMARK VINA RESULT:      -7.1      2.575      3.947
REMARK  Name = dock_mp/CHEMBL3/CHEMBL381532.pdb
REMARK  7 active torsions:
REMARK  status: ('A' for Active; 'I' for Inactive)
REMARK    1  A    between atoms: C1_1  and  C2_2
REMARK    2  A    between atoms: C6_6  and  C7_7
REMARK    3  A    between atoms: C12_14  and  C13_15
REMARK    4  A    between atoms: N4_21  and  C18_22
REMARK    5  A    between atoms: C18_22  and  C19_23
REMARK    6  A    between atoms: C19_23  and  C20_24
REMARK    7  A    between atoms: C20_24  and  N5_25
REMARK                            x       y       z     vdW  Elec       q    Type
REMARK                         _______ _______ _______ _____ _____    ______ ____
ROOT
ATOM      1  C13 CHE B   05     22.432  67.868  11.611  0.00  0.00    -0.012 A 
ATOM      2  C14 CHE B   05     24.647  68.605   9.726  0.00  0.00    +0.011 A 
ATOM      3  C15 CHE B   05     23.907  68.860   8.996  0.00  0.00    +0.030 A 
ATOM      4  C16 CHE B   05     23.827  69.387   7.560  0.00  0.00    +0.089 A 
ATOM      5  N3  CHE B   05     23.025  69.663   6.769  0.00  0.00    -0.236 NA
ATOM      6  C17 CHE B   05     17.430  68.091  10.748  0.00  0.00    +0.200 A 
ATOM      7  N4  CHE B   05     18.581  68.194  10.526  0.00  0.00    -0.330 N 
ATOM      8  C25 CHE B   05     21.598  68.655   9.432  0.00  0.00    +0.069 A 
ATOM      9  C26 CHE B   05     25.949  69.656   6.940  0.00  0.00    +0.036 A 
ENDROOT
BRANCH   1  17
ATOM     10  C7  CHE B   05     25.236  68.211  11.758  0.00  0.00    +0.119 A 
ATOM     11  N1  CHE B   05     22.943  67.616  15.113  0.00  0.00    -0.169 NA
ATOM     12  N2  CHE B   05     24.957  68.070  12.920  0.00  0.00    -0.267 N 
ATOM     13  C8  CHE B   05     28.245  68.691  10.661  0.00  0.00    +0.144 C 
ATOM     14  C9  CHE B   05     23.377  67.761  14.121  0.00  0.00    +0.029 C 
ATOM     15  C10 CHE B   05     22.570  67.739  13.233  0.00  0.00    +0.057 C 
ATOM     16  C11 CHE B   05     22.785  67.745  13.469  0.00  0.00    +0.048 A 
ATOM     17  C12 CHE B   05     25.394  68.348  10.462  0.00  0.00    +0.032 A 
BRANCH  10  23
ATOM     18  C1  CHE B   05     26.426  70.170  13.926  0.00  0.00    +0.065 C 
ATOM     19  C2  CHE B   05     25.619  70.148  13.038  0.00  0.00    +0.039 A 
ATOM     20  C3  CHE B   05     24.748  71.088  12.508  0.00  0.00    +0.023 A 
ATOM     21  C4  CHE B   05     24.008  71.068  11.694  0.00  0.00    +0.004 A 
ATOM     22  C5  CHE B   05     25.498  64.364  10.331  0.00  0.00    +0.030 A 
ATOM     23  C6  CHE B   05     25.249  68.211  11.773  0.00  0.00    +0.092 A 
ATOM     24  N6  CHE B   05     25.969  68.231  12.565  0.00  0.00    -0.250 NA
ENDBRANCH  10  23
ENDBRANCH   1  17
BRANCH   7  25
ATOM     25  C18 CHE B   05     21.854  69.566   6.970  0.00  0.00    +0.121 C 
BRANCH  25  26
ATOM     26  C19 CHE B   05     18.827  67.819   9.038  0.00  0.00    +0.003 C 
BRANCH  26  27
ATOM     27  C20 CHE B   05     17.165  66.264   9.570  0.00  0.00    -0.077 C 
BRANCH  27  28
ATOM     28  N5  CHE B   05     17.369  67.042   7.439  0.00  0.00    +0.383 N 
ATOM     29  C21 CHE B   05     17.699  67.395   6.522  0.00  0.00    -0.050 C 
ATOM     30  C22 CHE B   05     15.042  66.600   8.180  0.00  0.00    +0.141 C 
ATOM     31  O1  CHE B   05     18.877  69.234   1.632  0.00  0.00    -0.383 OA
ATOM     32  C23 CHE B   05     14.775  67.047   6.872  0.00  0.00    +0.141 C 
ATOM     33  C24 CHE B   05     15.844  66.878   7.573  0.00  0.00    -0.050 C 
ATOM     34  H22 CHE B   05     16.311  66.399   9.010  0.00  0.00    -0.082 HD
ENDBRANCH  27  28
ENDBRANCH  26  27
ENDBRANCH  25  26
ENDBRANCH   7  25
TORSDOF 6
ENDMDL
MODEL 10
REMARK VINA RESULT:      -7.0      3.770      6.319
REMARK  Name = dock_mp/CHEMBL3/CHEMBL381532.pdb
REMARK  7 active torsions:
REMARK  status: ('A' for Active; 'I' for Inactive)
REMARK    1  A    between atoms: C1_1  and  C2_2
REMARK    2  A    between atoms: C6_6  and  C7_7
REMARK    3  A    between atoms: C12_14  and  C13_15
REMARK    4  A    between atoms: N4_21  and  C18_22
REMARK    5  A    between atoms: C18_22  and  C19_23
REMARK    6  A    between atoms: C19_23  and  C20_24
REMARK    7  A    between atoms: C20_24  and  N5_25
REMARK                            x       y       z     vdW  Elec       q    Type
REMARK                         _______ _______ _______ _____ _____    ______ ____
ROOT
ATOM      1  C13 CHE B   05     23.961  68.755   9.213  0.00  0.00    -0.012 A 
ATOM      2  C14 CHE B   05     24.876  68.271  12.030  0.00  0.00    +0.011 A 
ATOM      3  C15 CHE B   05     23.860  68.373  12.351  0.00  0.00    +0.030 A 
ATOM      4  C16 CHE B   05     23.042  68.324  13.645  0.00  0.00    +0.089 A 
ATOM      5  N3  CHE B   05     21.941  68.435  13.993  0.00  0.00    -0.236 NA
ATOM      6  C17 CHE B   05     19.220  69.621   7.606  0.00  0.00    +0.200 A 
ATOM      7  N4  CHE B   05     20.091  69.403   8.366  0.00  0.00    -0.330 N 
ATOM      8  C25 CHE B   05     22.108  68.810  10.834  0.00  0.00    +0.069 A 
ATOM      9  C26 CHE B   05     24.539  67.913  15.243  0.00  0.00    +0.036 A 
ENDROOT
BRANCH   1  17
ATOM     10  C7  CHE B   05     26.439  68.417  10.535  0.00  0.00    +0.119 A 
ATOM     11  N1  CHE B   05     26.216  69.306   6.531  0.00  0.00    -0.169 NA
ATOM     12  N2  CHE B   05     26.803  68.658   9.413  0.00  0.00    -0.267 N 
ATOM     13  C8  CHE B   05     28.446  67.834  13.008  0.00  0.00    +0.144 C 
ATOM     14  C9  CHE B   05     26.073  69.075   7.590  0.00  0.00    +0.029 C 
ATOM     15  C10 CHE B   05     24.920  69.023   7.921  0.00  0.00    +0.057 C 
ATOM     16  C11 CHE B   05     25.228  69.036   7.832  0.00  0.00    +0.048 A 
ATOM     17  C12 CHE B   05     25.901  68.168  11.706  0.00  0.00    +0.032 A 
BRANCH  10  23
ATOM     18  C1  CHE B   05     28.798  70.489  10.229  0.00  0.00    +0.065 C 
ATOM     19  C2  CHE B   05     27.646  70.437  10.560  0.00  0.00    +0.039 A 
ATOM     20  C3  CHE B   05     26.732  71.378  11.008  0.00  0.00    +0.023 A 
ATOM     21  C4  CHE B   05     25.676  71.331  11.312  0.00  0.00    +0.004 A 
ATOM     22  C5  CHE B   05     25.493  64.444  10.062  0.00  0.00    +0.030 A 
ATOM     23  C6  CHE B   05     26.458  68.418  10.529  0.00  0.00    +0.092 A 
ATOM     24  N6  CHE B   05     27.485  68.465  10.234  0.00  0.00    -0.250 NA
ENDBRANCH  10  23
ENDBRANCH   1  17
BRANCH   7  25
ATOM     25  C18 CHE B   05     21.041  68.655  13.242  0.00  0.00    +0.121 C 
BRANCH  25  26
ATOM     26  C19 CHE B   05     19.774  68.288   9.401  0.00  0.00    +0.003 C 
BRANCH  26  27
ATOM     27  C20 CHE B   05     18.764  67.333   7.522  0.00  0.00    -0.077 C 
BRANCH  27  28
ATOM     28  N5  CHE B   05     17.796  67.128   9.574  0.00  0.00    +0.383 N 
ATOM     29  C21 CHE B   05     17.586  67.046  10.585  0.00  0.00    -0.050 C 
ATOM     30  C22 CHE B   05     16.215  67.137   7.661  0.00  0.00    +0.141 C 
ATOM     31  O1  CHE B   05     15.969  66.594  15.671  0.00  0.00    -0.383 OA
ATOM     32  C23 CHE B   05     15.288  67.000   8.711  0.00  0.00    +0.141 C 
ATOM     33  C24 CHE B   05     16.572  67.099   8.641  0.00  0.00    -0.050 C 
ATOM     34  H22 CHE B   05     17.738  67.254   7.578  0.00  0.00    -0.082 HD
ENDBRANCH  27  28
ENDBRANCH  26  27
ENDBRANCH  25  26
ENDBRANCH   7  25
TORSDOF 6
ENDMDL
