MODEL 1
REMARK VINA RESULT:     -10.7      0.000      0.000
REMARK  3 active torsions:
REMARK  status: ('A' for Active; 'I' for Inactive)
REMARK    1  A    between atoms: C3_4  and  C4_5 
REMARK    2  A    between atoms: C5_7  and  N3_8 
REMARK    3  A    between atoms: C6_10  and  C7_11 
ROOT
HETATM    1  C4  UNK     1      15.164  66.248   6.693  1.00  0.00     0.132 A 
HETATM    2  N2  UNK     1      14.764  66.178   8.018  1.00  0.00    -0.060 NA
HETATM    3  C5  UNK     1      15.583  66.958   8.675  1.00  0.00     0.699 A 
HETATM    4  N4  UNK     1      16.468  67.567   7.831  1.00  0.00    -0.187 N 
HETATM    5  C6  UNK     1      16.207  67.163   6.537  1.00  0.00     0.091 A 
HETATM    6  H6  UNK     1      17.190  68.205   8.118  1.00  0.00     0.184 HD
ENDROOT
BRANCH   5   7
HETATM    7  C7  UNK     1      16.955  67.658   5.378  1.00  0.00    -0.004 A 
HETATM    8  C8  UNK     1      16.308  67.975   4.183  1.00  0.00     0.016 A 
HETATM    9  C9  UNK     1      17.021  68.560   3.130  1.00  0.00     0.035 A 
HETATM   10  C10 UNK     1      18.377  68.831   3.236  1.00  0.00     0.085 A 
HETATM   11  N5  UNK     1      19.013  69.461   2.228  1.00  0.00    -0.257 NA
HETATM   12  C13 UNK     1      19.062  68.436   4.408  1.00  0.00     0.086 A 
HETATM   13  C11 UNK     1      20.337  69.670   2.394  1.00  0.00     0.136 A 
HETATM   14  C12 UNK     1      21.016  69.237   3.514  1.00  0.00     0.136 A 
HETATM   15  N6  UNK     1      20.393  68.623   4.539  1.00  0.00    -0.257 NA
HETATM   16  C14 UNK     1      18.342  67.856   5.445  1.00  0.00     0.048 A 
ENDBRANCH   5   7
BRANCH   1  17
HETATM   17  C3  UNK     1      14.532  65.451   5.647  1.00  0.00     0.089 A 
HETATM   18  N1  UNK     1      13.178  65.338   5.685  1.00  0.00    -0.248 NA
HETATM   19  C2  UNK     1      12.578  64.525   4.779  1.00  0.00     0.070 A 
HETATM   20  C1  UNK     1      11.091  64.377   4.867  1.00  0.00     0.074 C 
HETATM   21  C17 UNK     1      13.297  63.843   3.806  1.00  0.00     0.140 A 
HETATM   22  C16 UNK     1      14.675  63.994   3.749  1.00  0.00     0.047 A 
HETATM   23  F1  UNK     1      12.679  63.041   2.929  1.00  0.00    -0.204 F 
HETATM   24  C15 UNK     1      15.307  64.814   4.683  1.00  0.00     0.037 A 
ENDBRANCH   1  17
BRANCH   3  25
HETATM   25  N3  UNK     1      15.623  67.169   9.989  1.00  0.00    -0.233 N 
HETATM   26  H4  UNK     1      14.896  67.766  10.380  1.00  0.00     0.174 HD
HETATM   27  H5  UNK     1      16.468  67.120  10.541  1.00  0.00     0.174 HD
ENDBRANCH   3  25
TORSDOF 3
ENDMDL
MODEL 2
REMARK VINA RESULT:     -10.0      2.157      6.586
REMARK  3 active torsions:
REMARK  status: ('A' for Active; 'I' for Inactive)
REMARK    1  A    between atoms: C3_4  and  C4_5 
REMARK    2  A    between atoms: C5_7  and  N3_8 
REMARK    3  A    between atoms: C6_10  and  C7_11 
ROOT
HETATM    1  C4  UNK     1      16.836  67.076   6.397  1.00  0.00     0.132 A 
HETATM    2  N2  UNK     1      17.459  67.341   7.606  1.00  0.00    -0.060 NA
HETATM    3  C5  UNK     1      16.789  66.664   8.503  1.00  0.00     0.699 A 
HETATM    4  N4  UNK     1      15.788  65.936   7.925  1.00  0.00    -0.187 N 
HETATM    5  C6  UNK     1      15.808  66.146   6.561  1.00  0.00     0.091 A 
HETATM    6  H6  UNK     1      15.145  65.345   8.424  1.00  0.00     0.184 HD
ENDROOT
BRANCH   5   7
HETATM    7  C7  UNK     1      14.883  65.486   5.635  1.00  0.00    -0.004 A 
HETATM    8  C8  UNK     1      15.353  64.750   4.547  1.00  0.00     0.016 A 
HETATM    9  C9  UNK     1      14.461  64.027   3.747  1.00  0.00     0.035 A 
HETATM   10  C10 UNK     1      13.098  64.025   4.002  1.00  0.00     0.085 A 
HETATM   11  N5  UNK     1      12.279  63.260   3.254  1.00  0.00    -0.257 NA
HETATM   12  C13 UNK     1      12.598  64.836   5.048  1.00  0.00     0.086 A 
HETATM   13  C11 UNK     1      10.962  63.329   3.547  1.00  0.00     0.136 A 
HETATM   14  C12 UNK     1      10.469  64.159   4.531  1.00  0.00     0.136 A 
HETATM   15  N6  UNK     1      11.275  64.918   5.302  1.00  0.00    -0.257 NA
HETATM   16  C14 UNK     1      13.496  65.549   5.833  1.00  0.00     0.048 A 
ENDBRANCH   5   7
BRANCH   1  17
HETATM   17  C3  UNK     1      17.254  67.713   5.152  1.00  0.00     0.089 A 
HETATM   18  N1  UNK     1      18.557  68.081   5.049  1.00  0.00    -0.248 NA
HETATM   19  C2  UNK     1      18.946  68.760   3.940  1.00  0.00     0.070 A 
HETATM   20  C1  UNK     1      20.376  69.198   3.868  1.00  0.00     0.074 C 
HETATM   21  C17 UNK     1      18.066  69.052   2.906  1.00  0.00     0.140 A 
HETATM   22  C16 UNK     1      16.745  68.638   2.999  1.00  0.00     0.047 A 
HETATM   23  F1  UNK     1      18.476  69.730   1.825  1.00  0.00    -0.204 F 
HETATM   24  C15 UNK     1      16.328  67.954   4.141  1.00  0.00     0.037 A 
ENDBRANCH   1  17
BRANCH   3  25
HETATM   25  N3  UNK     1      16.986  66.648   9.820  1.00  0.00    -0.233 N 
HETATM   26  H4  UNK     1      16.905  65.745  10.284  1.00  0.00     0.174 HD
HETATM   27  H5  UNK     1      16.830  67.445  10.421  1.00  0.00     0.174 HD
ENDBRANCH   3  25
TORSDOF 3
ENDMDL
MODEL 3
REMARK VINA RESULT:      -9.8      2.862      6.977
REMARK  3 active torsions:
REMARK  status: ('A' for Active; 'I' for Inactive)
REMARK    1  A    between atoms: C3_4  and  C4_5 
REMARK    2  A    between atoms: C5_7  and  N3_8 
REMARK    3  A    between atoms: C6_10  and  C7_11 
ROOT
HETATM    1  C4  UNK     1      18.082  68.335   4.865  1.00  0.00     0.132 A 
HETATM    2  N2  UNK     1      18.701  69.259   4.038  1.00  0.00    -0.060 NA
HETATM    3  C5  UNK     1      18.016  69.250   2.924  1.00  0.00     0.699 A 
HETATM    4  N4  UNK     1      16.952  68.396   3.006  1.00  0.00    -0.187 N 
HETATM    5  C6  UNK     1      16.939  67.813   4.258  1.00  0.00     0.091 A 
HETATM    6  H6  UNK     1      16.292  68.228   2.267  1.00  0.00     0.184 HD
ENDROOT
BRANCH   5   7
HETATM    7  C7  UNK     1      15.905  66.868   4.689  1.00  0.00    -0.004 A 
HETATM    8  C8  UNK     1      15.336  66.950   5.960  1.00  0.00     0.016 A 
HETATM    9  C9  UNK     1      14.267  66.118   6.309  1.00  0.00     0.035 A 
HETATM   10  C10 UNK     1      13.751  65.189   5.418  1.00  0.00     0.085 A 
HETATM   11  N5  UNK     1      12.675  64.455   5.764  1.00  0.00    -0.257 NA
HETATM   12  C13 UNK     1      14.374  65.035   4.157  1.00  0.00     0.086 A 
HETATM   13  C11 UNK     1      12.245  63.557   4.853  1.00  0.00     0.136 A 
HETATM   14  C12 UNK     1      12.884  63.368   3.645  1.00  0.00     0.136 A 
HETATM   15  N6  UNK     1      13.950  64.106   3.274  1.00  0.00    -0.257 NA
HETATM   16  C14 UNK     1      15.435  65.868   3.825  1.00  0.00     0.048 A 
ENDBRANCH   5   7
BRANCH   1  17
HETATM   17  C3  UNK     1      18.604  68.003   6.187  1.00  0.00     0.089 A 
HETATM   18  N1  UNK     1      17.840  68.341   7.258  1.00  0.00    -0.248 NA
HETATM   19  C2  UNK     1      18.347  68.129   8.499  1.00  0.00     0.070 A 
HETATM   20  C1  UNK     1      17.510  68.551   9.666  1.00  0.00     0.074 C 
HETATM   21  C17 UNK     1      19.594  67.551   8.699  1.00  0.00     0.140 A 
HETATM   22  C16 UNK     1      20.352  67.172   7.600  1.00  0.00     0.047 A 
HETATM   23  F1  UNK     1      20.074  67.359   9.936  1.00  0.00    -0.204 F 
HETATM   24  C15 UNK     1      19.850  67.399   6.319  1.00  0.00     0.037 A 
ENDBRANCH   1  17
BRANCH   3  25
HETATM   25  N3  UNK     1      18.266  69.939   1.812  1.00  0.00    -0.233 N 
HETATM   26  H4  UNK     1      18.732  70.837   1.924  1.00  0.00     0.174 HD
HETATM   27  H5  UNK     1      17.726  69.848   0.962  1.00  0.00     0.174 HD
ENDBRANCH   3  25
TORSDOF 3
ENDMDL
MODEL 4
REMARK VINA RESULT:      -9.5      2.413      4.390
REMARK  3 active torsions:
REMARK  status: ('A' for Active; 'I' for Inactive)
REMARK    1  A    between atoms: C3_4  and  C4_5 
REMARK    2  A    between atoms: C5_7  and  N3_8 
REMARK    3  A    between atoms: C6_10  and  C7_11 
ROOT
HETATM    1  C4  UNK     1      14.637  66.213   6.029  1.00  0.00     0.132 A 
HETATM    2  N2  UNK     1      13.612  65.281   6.086  1.00  0.00    -0.060 NA
HETATM    3  C5  UNK     1      13.364  64.955   4.844  1.00  0.00     0.699 A 
HETATM    4  N4  UNK     1      14.212  65.598   3.986  1.00  0.00    -0.187 N 
HETATM    5  C6  UNK     1      15.074  66.391   4.716  1.00  0.00     0.091 A 
HETATM    6  H6  UNK     1      14.200  65.499   2.986  1.00  0.00     0.184 HD
ENDROOT
BRANCH   5   7
HETATM    7  C7  UNK     1      16.137  67.191   4.102  1.00  0.00    -0.004 A 
HETATM    8  C8  UNK     1      15.889  67.985   2.982  1.00  0.00     0.016 A 
HETATM    9  C9  UNK     1      16.884  68.835   2.485  1.00  0.00     0.035 A 
HETATM   10  C10 UNK     1      18.135  68.908   3.078  1.00  0.00     0.085 A 
HETATM   11  N5  UNK     1      19.043  69.791   2.616  1.00  0.00    -0.257 NA
HETATM   12  C13 UNK     1      18.429  68.046   4.161  1.00  0.00     0.086 A 
HETATM   13  C11 UNK     1      20.246  69.788   3.229  1.00  0.00     0.136 A 
HETATM   14  C12 UNK     1      20.551  68.911   4.249  1.00  0.00     0.136 A 
HETATM   15  N6  UNK     1      19.650  68.035   4.737  1.00  0.00    -0.257 NA
HETATM   16  C14 UNK     1      17.432  67.208   4.642  1.00  0.00     0.048 A 
ENDBRANCH   5   7
BRANCH   1  17
HETATM   17  C3  UNK     1      15.152  66.875   7.224  1.00  0.00     0.089 A 
HETATM   18  N1  UNK     1      15.407  66.095   8.306  1.00  0.00    -0.248 NA
HETATM   19  C2  UNK     1      15.795  66.702   9.456  1.00  0.00     0.070 A 
HETATM   20  C1  UNK     1      16.026  65.829  10.650  1.00  0.00     0.074 C 
HETATM   21  C17 UNK     1      15.970  68.077   9.544  1.00  0.00     0.140 A 
HETATM   22  C16 UNK     1      15.745  68.864   8.423  1.00  0.00     0.047 A 
HETATM   23  F1  UNK     1      16.347  68.651  10.695  1.00  0.00    -0.204 F 
HETATM   24  C15 UNK     1      15.331  68.255   7.239  1.00  0.00     0.037 A 
ENDBRANCH   1  17
BRANCH   3  25
HETATM   25  N3  UNK     1      12.420  64.130   4.396  1.00  0.00    -0.233 N 
HETATM   26  H4  UNK     1      12.048  64.319   3.467  1.00  0.00     0.174 HD
HETATM   27  H5  UNK     1      11.799  63.606   4.998  1.00  0.00     0.174 HD
ENDBRANCH   3  25
TORSDOF 3
ENDMDL
MODEL 5
REMARK VINA RESULT:      -9.3      2.633      5.762
REMARK  3 active torsions:
REMARK  status: ('A' for Active; 'I' for Inactive)
REMARK    1  A    between atoms: C3_4  and  C4_5 
REMARK    2  A    between atoms: C5_7  and  N3_8 
REMARK    3  A    between atoms: C6_10  and  C7_11 
ROOT
HETATM    1  C4  UNK     1      14.990  66.404   4.461  1.00  0.00     0.132 A 
HETATM    2  N2  UNK     1      14.160  65.527   3.779  1.00  0.00    -0.060 NA
HETATM    3  C5  UNK     1      13.623  64.765   4.697  1.00  0.00     0.699 A 
HETATM    4  N4  UNK     1      14.031  65.137   5.947  1.00  0.00    -0.187 N 
HETATM    5  C6  UNK     1      14.886  66.216   5.840  1.00  0.00     0.091 A 
HETATM    6  H6  UNK     1      13.747  64.689   6.801  1.00  0.00     0.184 HD
ENDROOT
BRANCH   5   7
HETATM    7  C7  UNK     1      15.480  66.884   7.000  1.00  0.00    -0.004 A 
HETATM    8  C8  UNK     1      14.690  67.582   7.915  1.00  0.00     0.016 A 
HETATM    9  C9  UNK     1      15.259  68.109   9.079  1.00  0.00     0.035 A 
HETATM   10  C10 UNK     1      16.611  67.965   9.354  1.00  0.00     0.085 A 
HETATM   11  N5  UNK     1      17.109  68.423  10.520  1.00  0.00    -0.257 NA
HETATM   12  C13 UNK     1      17.439  67.336   8.395  1.00  0.00     0.086 A 
HETATM   13  C11 UNK     1      18.437  68.267  10.707  1.00  0.00     0.136 A 
HETATM   14  C12 UNK     1      19.254  67.702   9.749  1.00  0.00     0.136 A 
HETATM   15  N6  UNK     1      18.771  67.221   8.585  1.00  0.00    -0.257 NA
HETATM   16  C14 UNK     1      16.860  66.818   7.244  1.00  0.00     0.048 A 
ENDBRANCH   5   7
BRANCH   1  17
HETATM   17  C3  UNK     1      15.829  67.376   3.767  1.00  0.00     0.089 A 
HETATM   18  N1  UNK     1      17.100  67.535   4.220  1.00  0.00    -0.248 NA
HETATM   19  C2  UNK     1      17.867  68.500   3.653  1.00  0.00     0.070 A 
HETATM   20  C1  UNK     1      19.248  68.690   4.197  1.00  0.00     0.074 C 
HETATM   21  C17 UNK     1      17.404  69.295   2.611  1.00  0.00     0.140 A 
HETATM   22  C16 UNK     1      16.118  69.101   2.128  1.00  0.00     0.047 A 
HETATM   23  F1  UNK     1      18.180  70.246   2.074  1.00  0.00    -0.204 F 
HETATM   24  C15 UNK     1      15.314  68.123   2.712  1.00  0.00     0.037 A 
ENDBRANCH   1  17
BRANCH   3  25
HETATM   25  N3  UNK     1      12.796  63.738   4.516  1.00  0.00    -0.233 N 
HETATM   26  H4  UNK     1      11.851  63.958   4.207  1.00  0.00     0.174 HD
HETATM   27  H5  UNK     1      12.885  62.853   4.997  1.00  0.00     0.174 HD
ENDBRANCH   3  25
TORSDOF 3
ENDMDL
MODEL 6
REMARK VINA RESULT:      -8.8      2.275      5.028
REMARK  3 active torsions:
REMARK  status: ('A' for Active; 'I' for Inactive)
REMARK    1  A    between atoms: C3_4  and  C4_5 
REMARK    2  A    between atoms: C5_7  and  N3_8 
REMARK    3  A    between atoms: C6_10  and  C7_11 
ROOT
HETATM    1  C4  UNK     1      16.692  67.607   4.075  1.00  0.00     0.132 A 
HETATM    2  N2  UNK     1      16.701  68.064   2.766  1.00  0.00    -0.060 NA
HETATM    3  C5  UNK     1      17.721  68.878   2.685  1.00  0.00     0.699 A 
HETATM    4  N4  UNK     1      18.402  68.935   3.869  1.00  0.00    -0.187 N 
HETATM    5  C6  UNK     1      17.790  68.099   4.781  1.00  0.00     0.091 A 
HETATM    6  H6  UNK     1      19.218  69.499   4.036  1.00  0.00     0.184 HD
ENDROOT
BRANCH   5   7
HETATM    7  C7  UNK     1      18.290  67.898   6.143  1.00  0.00    -0.004 A 
HETATM    8  C8  UNK     1      19.581  67.422   6.377  1.00  0.00     0.016 A 
HETATM    9  C9  UNK     1      20.082  67.353   7.682  1.00  0.00     0.035 A 
HETATM   10  C10 UNK     1      19.318  67.743   8.772  1.00  0.00     0.085 A 
HETATM   11  N5  UNK     1      19.860  67.731  10.006  1.00  0.00    -0.257 NA
HETATM   12  C13 UNK     1      17.979  68.146   8.558  1.00  0.00     0.086 A 
HETATM   13  C11 UNK     1      19.048  68.102  11.019  1.00  0.00     0.136 A 
HETATM   14  C12 UNK     1      17.727  68.443  10.818  1.00  0.00     0.136 A 
HETATM   15  N6  UNK     1      17.174  68.479   9.589  1.00  0.00    -0.257 NA
HETATM   16  C14 UNK     1      17.496  68.209   7.257  1.00  0.00     0.048 A 
ENDBRANCH   5   7
BRANCH   1  17
HETATM   17  C3  UNK     1      15.647  66.722   4.581  1.00  0.00     0.089 A 
HETATM   18  N1  UNK     1      15.376  65.604   3.858  1.00  0.00    -0.248 NA
HETATM   19  C2  UNK     1      14.345  64.817   4.258  1.00  0.00     0.070 A 
HETATM   20  C1  UNK     1      14.034  63.614   3.422  1.00  0.00     0.074 C 
HETATM   21  C17 UNK     1      13.593  65.102   5.391  1.00  0.00     0.140 A 
HETATM   22  C16 UNK     1      13.901  66.225   6.146  1.00  0.00     0.047 A 
HETATM   23  F1  UNK     1      12.576  64.311   5.758  1.00  0.00    -0.204 F 
HETATM   24  C15 UNK     1      14.948  67.051   5.738  1.00  0.00     0.037 A 
ENDBRANCH   1  17
BRANCH   3  25
HETATM   25  N3  UNK     1      18.100  69.602   1.634  1.00  0.00    -0.233 N 
HETATM   26  H4  UNK     1      18.841  69.215   1.053  1.00  0.00     0.174 HD
HETATM   27  H5  UNK     1      18.007  70.607   1.580  1.00  0.00     0.174 HD
ENDBRANCH   3  25
TORSDOF 3
ENDMDL
MODEL 7
REMARK VINA RESULT:      -8.8      4.493      7.544
REMARK  3 active torsions:
REMARK  status: ('A' for Active; 'I' for Inactive)
REMARK    1  A    between atoms: C3_4  and  C4_5 
REMARK    2  A    between atoms: C5_7  and  N3_8 
REMARK    3  A    between atoms: C6_10  and  C7_11 
ROOT
HETATM    1  C4  UNK     1      18.624  67.962  11.172  1.00  0.00     0.132 A 
HETATM    2  N2  UNK     1      18.716  67.732  12.536  1.00  0.00    -0.060 NA
HETATM    3  C5  UNK     1      17.497  67.473  12.932  1.00  0.00     0.699 A 
HETATM    4  N4  UNK     1      16.625  67.479  11.880  1.00  0.00    -0.187 N 
HETATM    5  C6  UNK     1      17.320  67.754  10.720  1.00  0.00     0.091 A 
HETATM    6  H6  UNK     1      15.636  67.307  11.952  1.00  0.00     0.184 HD
ENDROOT
BRANCH   5   7
HETATM    7  C7  UNK     1      16.688  67.800   9.399  1.00  0.00    -0.004 A 
HETATM    8  C8  UNK     1      16.560  69.002   8.701  1.00  0.00     0.016 A 
HETATM    9  C9  UNK     1      16.065  69.008   7.393  1.00  0.00     0.035 A 
HETATM   10  C10 UNK     1      15.681  67.836   6.758  1.00  0.00     0.085 A 
HETATM   11  N5  UNK     1      15.277  67.872   5.473  1.00  0.00    -0.257 NA
HETATM   12  C13 UNK     1      15.724  66.622   7.484  1.00  0.00     0.086 A 
HETATM   13  C11 UNK     1      14.898  66.696   4.931  1.00  0.00     0.136 A 
HETATM   14  C12 UNK     1      14.888  65.521   5.654  1.00  0.00     0.136 A 
HETATM   15  N6  UNK     1      15.307  65.462   6.934  1.00  0.00    -0.257 NA
HETATM   16  C14 UNK     1      16.217  66.632   8.782  1.00  0.00     0.048 A 
ENDBRANCH   5   7
BRANCH   1  17
HETATM   17  C3  UNK     1      19.779  68.358  10.372  1.00  0.00     0.089 A 
HETATM   18  N1  UNK     1      20.495  69.429  10.802  1.00  0.00    -0.248 NA
HETATM   19  C2  UNK     1      21.514  69.872  10.023  1.00  0.00     0.070 A 
HETATM   20  C1  UNK     1      22.261  71.082  10.491  1.00  0.00     0.074 C 
HETATM   21  C17 UNK     1      21.862  69.246   8.833  1.00  0.00     0.140 A 
HETATM   22  C16 UNK     1      21.151  68.128   8.420  1.00  0.00     0.047 A 
HETATM   23  F1  UNK     1      22.869  69.710   8.080  1.00  0.00    -0.204 F 
HETATM   24  C15 UNK     1      20.091  67.672   9.202  1.00  0.00     0.037 A 
ENDBRANCH   1  17
BRANCH   3  25
HETATM   25  N3  UNK     1      17.080  67.241  14.175  1.00  0.00    -0.233 N 
HETATM   26  H4  UNK     1      16.914  68.056  14.763  1.00  0.00     0.174 HD
HETATM   27  H5  UNK     1      17.274  66.389  14.683  1.00  0.00     0.174 HD
ENDBRANCH   3  25
TORSDOF 3
ENDMDL
MODEL 8
REMARK VINA RESULT:      -8.7      4.359      6.590
REMARK  3 active torsions:
REMARK  status: ('A' for Active; 'I' for Inactive)
REMARK    1  A    between atoms: C3_4  and  C4_5 
REMARK    2  A    between atoms: C5_7  and  N3_8 
REMARK    3  A    between atoms: C6_10  and  C7_11 
ROOT
HETATM    1  C4  UNK     1      20.848  69.739   5.518  1.00  0.00     0.132 A 
HETATM    2  N2  UNK     1      20.811  70.232   6.813  1.00  0.00    -0.060 NA
HETATM    3  C5  UNK     1      22.034  70.611   7.079  1.00  0.00     0.699 A 
HETATM    4  N4  UNK     1      22.853  70.429   6.001  1.00  0.00    -0.187 N 
HETATM    5  C6  UNK     1      22.117  69.903   4.959  1.00  0.00     0.091 A 
HETATM    6  H6  UNK     1      23.835  70.649   5.981  1.00  0.00     0.184 HD
ENDROOT
BRANCH   5   7
HETATM    7  C7  UNK     1      22.686  69.618   3.640  1.00  0.00    -0.004 A 
HETATM    8  C8  UNK     1      21.887  69.604   2.496  1.00  0.00     0.016 A 
HETATM    9  C9  UNK     1      22.468  69.452   1.232  1.00  0.00     0.035 A 
HETATM   10  C10 UNK     1      23.838  69.302   1.078  1.00  0.00     0.085 A 
HETATM   11  N5  UNK     1      24.369  69.230  -0.159  1.00  0.00    -0.257 NA
HETATM   12  C13 UNK     1      24.651  69.227   2.234  1.00  0.00     0.086 A 
HETATM   13  C11 UNK     1      25.707  69.062  -0.228  1.00  0.00     0.136 A 
HETATM   14  C12 UNK     1      26.492  68.935   0.899  1.00  0.00     0.136 A 
HETATM   15  N6  UNK     1      25.982  69.023   2.144  1.00  0.00    -0.257 NA
HETATM   16  C14 UNK     1      24.060  69.380   3.482  1.00  0.00     0.048 A 
ENDBRANCH   5   7
BRANCH   1  17
HETATM   17  C3  UNK     1      19.676  69.148   4.878  1.00  0.00     0.089 A 
HETATM   18  N1  UNK     1      19.201  69.762   3.764  1.00  0.00    -0.248 NA
HETATM   19  C2  UNK     1      18.057  69.286   3.208  1.00  0.00     0.070 A 
HETATM   20  C1  UNK     1      17.525  70.005   2.008  1.00  0.00     0.074 C 
HETATM   21  C17 UNK     1      17.390  68.181   3.722  1.00  0.00     0.140 A 
HETATM   22  C16 UNK     1      17.904  67.535   4.837  1.00  0.00     0.047 A 
HETATM   23  F1  UNK     1      16.259  67.737   3.157  1.00  0.00    -0.204 F 
HETATM   24  C15 UNK     1      19.069  68.023   5.427  1.00  0.00     0.037 A 
ENDBRANCH   1  17
BRANCH   3  25
HETATM   25  N3  UNK     1      22.499  71.102   8.227  1.00  0.00    -0.233 N 
HETATM   26  H4  UNK     1      23.491  70.970   8.414  1.00  0.00     0.174 HD
HETATM   27  H5  UNK     1      21.931  71.238   9.051  1.00  0.00     0.174 HD
ENDBRANCH   3  25
TORSDOF 3
ENDMDL
MODEL 9
REMARK VINA RESULT:      -8.6      2.774      6.296
REMARK  3 active torsions:
REMARK  status: ('A' for Active; 'I' for Inactive)
REMARK    1  A    between atoms: C3_4  and  C4_5 
REMARK    2  A    between atoms: C5_7  and  N3_8 
REMARK    3  A    between atoms: C6_10  and  C7_11 
ROOT
HETATM    1  C4  UNK     1      19.745  69.068   3.997  1.00  0.00     0.132 A 
HETATM    2  N2  UNK     1      20.774  69.526   3.189  1.00  0.00    -0.060 NA
HETATM    3  C5  UNK     1      21.823  69.604   3.967  1.00  0.00     0.699 A 
HETATM    4  N4  UNK     1      21.533  69.174   5.231  1.00  0.00    -0.187 N 
HETATM    5  C6  UNK     1      20.210  68.784   5.282  1.00  0.00     0.091 A 
HETATM    6  H6  UNK     1      22.188  69.150   5.994  1.00  0.00     0.184 HD
ENDROOT
BRANCH   5   7
HETATM    7  C7  UNK     1      19.582  68.238   6.488  1.00  0.00    -0.004 A 
HETATM    8  C8  UNK     1      20.187  67.213   7.216  1.00  0.00     0.016 A 
HETATM    9  C9  UNK     1      19.635  66.789   8.430  1.00  0.00     0.035 A 
HETATM   10  C10 UNK     1      18.477  67.361   8.937  1.00  0.00     0.085 A 
HETATM   11  N5  UNK     1      18.015  66.977  10.144  1.00  0.00    -0.257 NA
HETATM   12  C13 UNK     1      17.806  68.340   8.168  1.00  0.00     0.086 A 
HETATM   13  C11 UNK     1      16.872  67.562  10.560  1.00  0.00     0.136 A 
HETATM   14  C12 UNK     1      16.188  68.477   9.787  1.00  0.00     0.136 A 
HETATM   15  N6  UNK     1      16.645  68.887   8.587  1.00  0.00    -0.257 NA
HETATM   16  C14 UNK     1      18.367  68.750   6.965  1.00  0.00     0.048 A 
ENDBRANCH   5   7
BRANCH   1  17
HETATM   17  C3  UNK     1      18.379  68.917   3.504  1.00  0.00     0.089 A 
HETATM   18  N1  UNK     1      17.607  67.968   4.094  1.00  0.00    -0.248 NA
HETATM   19  C2  UNK     1      16.367  67.746   3.589  1.00  0.00     0.070 A 
HETATM   20  C1  UNK     1      15.549  66.665   4.224  1.00  0.00     0.074 C 
HETATM   21  C17 UNK     1      15.861  68.477   2.521  1.00  0.00     0.140 A 
HETATM   22  C16 UNK     1      16.642  69.471   1.948  1.00  0.00     0.047 A 
HETATM   23  F1  UNK     1      14.636  68.231   2.038  1.00  0.00    -0.204 F 
HETATM   24  C15 UNK     1      17.923  69.700   2.447  1.00  0.00     0.037 A 
ENDBRANCH   1  17
BRANCH   3  25
HETATM   25  N3  UNK     1      23.038  70.046   3.648  1.00  0.00    -0.233 N 
HETATM   26  H4  UNK     1      23.761  69.343   3.509  1.00  0.00     0.174 HD
HETATM   27  H5  UNK     1      23.386  70.962   3.897  1.00  0.00     0.174 HD
ENDBRANCH   3  25
TORSDOF 3
ENDMDL
MODEL 10
REMARK VINA RESULT:      -8.6      3.325      5.651
REMARK  3 active torsions:
REMARK  status: ('A' for Active; 'I' for Inactive)
REMARK    1  A    between atoms: C3_4  and  C4_5 
REMARK    2  A    between atoms: C5_7  and  N3_8 
REMARK    3  A    between atoms: C6_10  and  C7_11 
ROOT
HETATM    1  C4  UNK     1      17.725  68.481   4.732  1.00  0.00     0.132 A 
HETATM    2  N2  UNK     1      17.445  68.701   3.392  1.00  0.00    -0.060 NA
HETATM    3  C5  UNK     1      18.545  69.187   2.878  1.00  0.00     0.699 A 
HETATM    4  N4  UNK     1      19.540  69.251   3.812  1.00  0.00    -0.187 N 
HETATM    5  C6  UNK     1      19.061  68.769   5.014  1.00  0.00     0.091 A 
HETATM    6  H6  UNK     1      20.469  69.595   3.639  1.00  0.00     0.184 HD
ENDROOT
BRANCH   5   7
HETATM    7  C7  UNK     1      19.886  68.667   6.221  1.00  0.00    -0.004 A 
HETATM    8  C8  UNK     1      19.957  67.478   6.948  1.00  0.00     0.016 A 
HETATM    9  C9  UNK     1      20.843  67.363   8.025  1.00  0.00     0.035 A 
HETATM   10  C10 UNK     1      21.663  68.416   8.405  1.00  0.00     0.085 A 
HETATM   11  N5  UNK     1      22.554  68.244   9.401  1.00  0.00    -0.257 NA
HETATM   12  C13 UNK     1      21.539  69.654   7.731  1.00  0.00     0.086 A 
HETATM   13  C11 UNK     1      23.300  69.320   9.729  1.00  0.00     0.136 A 
HETATM   14  C12 UNK     1      23.143  70.542   9.109  1.00  0.00     0.136 A 
HETATM   15  N6  UNK     1      22.269  70.728   8.098  1.00  0.00    -0.257 NA
HETATM   16  C14 UNK     1      20.655  69.753   6.665  1.00  0.00     0.048 A 
ENDBRANCH   5   7
BRANCH   1  17
HETATM   17  C3  UNK     1      16.713  68.004   5.669  1.00  0.00     0.089 A 
HETATM   18  N1  UNK     1      16.620  68.645   6.863  1.00  0.00    -0.248 NA
HETATM   19  C2  UNK     1      15.752  68.157   7.786  1.00  0.00     0.070 A 
HETATM   20  C1  UNK     1      15.698  68.849   9.112  1.00  0.00     0.074 C 
HETATM   21  C17 UNK     1      14.942  67.058   7.531  1.00  0.00     0.140 A 
HETATM   22  C16 UNK     1      15.014  66.432   6.295  1.00  0.00     0.047 A 
HETATM   23  F1  UNK     1      14.099  66.594   8.464  1.00  0.00    -0.204 F 
HETATM   24  C15 UNK     1      15.913  66.913   5.343  1.00  0.00     0.037 A 
ENDBRANCH   1  17
BRANCH   3  25
HETATM   25  N3  UNK     1      18.741  69.601   1.628  1.00  0.00    -0.233 N 
HETATM   26  H4  UNK     1      19.301  68.999   1.028  1.00  0.00     0.174 HD
HETATM   27  H5  UNK     1      18.722  70.573   1.348  1.00  0.00     0.174 HD
ENDBRANCH   3  25
TORSDOF 3
ENDMDL
