MODEL 1
REMARK VINA RESULT:      -9.6      0.000      0.000
REMARK  2 active torsions:
REMARK  status: ('A' for Active; 'I' for Inactive)
REMARK       I    between atoms: C2_2  and  N1_4 
REMARK    1  A    between atoms: N1_4  and  C3_5 
REMARK    2  A    between atoms: C4_7  and  C5_8 
ROOT
HETATM    1  C3  UNK     1      13.609  65.127   4.581  1.00  0.00     0.708 A 
HETATM    2  N2  UNK     1      14.472  65.861   3.923  1.00  0.00    -0.060 NA
HETATM    3  C4  UNK     1      15.269  66.466   4.862  1.00  0.00     0.132 A 
HETATM    4  C11 UNK     1      14.900  66.069   6.131  1.00  0.00     0.092 A 
HETATM    5  C12 UNK     1      15.482  66.234   7.413  1.00  0.00     0.011 A 
HETATM    6  C13 UNK     1      16.592  65.401   7.885  1.00  0.00     0.019 A 
HETATM    7  C14 UNK     1      17.279  65.689   9.005  1.00  0.00     0.053 A 
HETATM    8  C15 UNK     1      16.913  66.823   9.776  1.00  0.00     0.151 A 
HETATM    9  N4  UNK     1      17.407  67.328  10.884  1.00  0.00    -0.221 NA
HETATM   10  C16 UNK     1      16.618  68.418  11.092  1.00  0.00     0.258 A 
HETATM   11  N5  UNK     1      15.651  68.623  10.196  1.00  0.00    -0.160 NA
HETATM   12  N6  UNK     1      15.840  67.597   9.326  1.00  0.00    -0.225 N 
HETATM   13  C17 UNK     1      15.138  67.307   8.154  1.00  0.00     0.134 A 
HETATM   14  N7  UNK     1      13.805  65.260   5.937  1.00  0.00    -0.186 N 
HETATM   15  H14 UNK     1      13.279  64.790   6.659  1.00  0.00     0.184 HD
ENDROOT
BRANCH   3  16
HETATM   16  C5  UNK     1      16.399  67.314   4.519  1.00  0.00     0.089 A 
HETATM   17  C6  UNK     1      17.386  67.562   5.467  1.00  0.00     0.037 A 
HETATM   18  C7  UNK     1      18.453  68.381   5.116  1.00  0.00     0.047 A 
HETATM   19  C8  UNK     1      18.505  68.905   3.832  1.00  0.00     0.140 A 
HETATM   20  F1  UNK     1      19.537  69.681   3.479  1.00  0.00    -0.204 F 
HETATM   21  C9  UNK     1      17.483  68.617   2.932  1.00  0.00     0.070 A 
HETATM   22  C10 UNK     1      17.509  69.147   1.533  1.00  0.00     0.074 C 
HETATM   23  N3  UNK     1      16.425  67.833   3.264  1.00  0.00    -0.248 NA
ENDBRANCH   3  16
BRANCH   1  24
HETATM   24  N1  UNK     1      12.645  64.301   4.052  1.00  0.00    -0.158 N 
HETATM   25  C2  UNK     1      11.331  64.358   4.497  1.00  0.00     0.232 C 
HETATM   26  C1  UNK     1      10.438  63.411   3.738  1.00  0.00     0.118 C 
HETATM   27  O1  UNK     1      10.867  65.060   5.388  1.00  0.00    -0.273 OA
HETATM   28  H4  UNK     1      12.888  63.670   3.305  1.00  0.00     0.187 HD
ENDBRANCH   1  24
TORSDOF 2
ENDMDL
MODEL 2
REMARK VINA RESULT:      -9.4      4.628      7.559
REMARK  2 active torsions:
REMARK  status: ('A' for Active; 'I' for Inactive)
REMARK       I    between atoms: C2_2  and  N1_4 
REMARK    1  A    between atoms: N1_4  and  C3_5 
REMARK    2  A    between atoms: C4_7  and  C5_8 
ROOT
HETATM    1  C3  UNK     1      22.085  69.691   2.567  1.00  0.00     0.708 A 
HETATM    2  N2  UNK     1      20.897  69.491   2.051  1.00  0.00    -0.060 NA
HETATM    3  C4  UNK     1      20.071  69.143   3.091  1.00  0.00     0.132 A 
HETATM    4  C11 UNK     1      20.769  69.155   4.282  1.00  0.00     0.092 A 
HETATM    5  C12 UNK     1      20.381  69.058   5.642  1.00  0.00     0.011 A 
HETATM    6  C13 UNK     1      19.837  70.197   6.386  1.00  0.00     0.019 A 
HETATM    7  C14 UNK     1      19.275  70.060   7.601  1.00  0.00     0.053 A 
HETATM    8  C15 UNK     1      19.222  68.776   8.202  1.00  0.00     0.151 A 
HETATM    9  N4  UNK     1      18.735  68.364   9.351  1.00  0.00    -0.221 NA
HETATM   10  C16 UNK     1      18.988  67.026   9.319  1.00  0.00     0.258 A 
HETATM   11  N5  UNK     1      19.615  66.572   8.233  1.00  0.00    -0.160 NA
HETATM   12  N6  UNK     1      19.763  67.700   7.491  1.00  0.00    -0.225 N 
HETATM   13  C17 UNK     1      20.329  67.843   6.223  1.00  0.00     0.134 A 
HETATM   14  N7  UNK     1      22.064  69.451   3.923  1.00  0.00    -0.186 N 
HETATM   15  H14 UNK     1      22.847  69.544   4.552  1.00  0.00     0.184 HD
ENDROOT
BRANCH   3  16
HETATM   16  C5  UNK     1      18.647  68.906   2.931  1.00  0.00     0.089 A 
HETATM   17  C6  UNK     1      17.979  69.437   1.832  1.00  0.00     0.037 A 
HETATM   18  C7  UNK     1      16.615  69.199   1.704  1.00  0.00     0.047 A 
HETATM   19  C8  UNK     1      15.974  68.428   2.664  1.00  0.00     0.140 A 
HETATM   20  F1  UNK     1      14.664  68.180   2.540  1.00  0.00    -0.204 F 
HETATM   21  C9  UNK     1      16.702  67.926   3.739  1.00  0.00     0.070 A 
HETATM   22  C10 UNK     1      16.053  67.077   4.786  1.00  0.00     0.074 C 
HETATM   23  N3  UNK     1      18.030  68.163   3.888  1.00  0.00    -0.248 NA
ENDBRANCH   3  16
BRANCH   1  24
HETATM   24  N1  UNK     1      23.218  70.107   1.910  1.00  0.00    -0.158 N 
HETATM   25  C2  UNK     1      23.971  71.173   2.383  1.00  0.00     0.232 C 
HETATM   26  C1  UNK     1      25.198  71.413   1.544  1.00  0.00     0.118 C 
HETATM   27  O1  UNK     1      23.740  71.884   3.355  1.00  0.00    -0.273 OA
HETATM   28  H4  UNK     1      23.529  69.606   1.091  1.00  0.00     0.187 HD
ENDBRANCH   1  24
TORSDOF 2
ENDMDL
MODEL 3
REMARK VINA RESULT:      -9.1      4.217      6.903
REMARK  2 active torsions:
REMARK  status: ('A' for Active; 'I' for Inactive)
REMARK       I    between atoms: C2_2  and  N1_4 
REMARK    1  A    between atoms: N1_4  and  C3_5 
REMARK    2  A    between atoms: C4_7  and  C5_8 
ROOT
HETATM    1  C3  UNK     1      21.680  69.632   6.785  1.00  0.00     0.708 A 
HETATM    2  N2  UNK     1      21.249  69.585   5.549  1.00  0.00    -0.060 NA
HETATM    3  C4  UNK     1      19.947  69.153   5.603  1.00  0.00     0.132 A 
HETATM    4  C11 UNK     1      19.562  68.956   6.914  1.00  0.00     0.092 A 
HETATM    5  C12 UNK     1      18.315  68.701   7.537  1.00  0.00     0.011 A 
HETATM    6  C13 UNK     1      17.340  69.762   7.807  1.00  0.00     0.019 A 
HETATM    7  C14 UNK     1      16.081  69.497   8.202  1.00  0.00     0.053 A 
HETATM    8  C15 UNK     1      15.678  68.149   8.387  1.00  0.00     0.151 A 
HETATM    9  N4  UNK     1      14.533  67.618   8.751  1.00  0.00    -0.221 NA
HETATM   10  C16 UNK     1      14.802  66.283   8.723  1.00  0.00     0.258 A 
HETATM   11  N5  UNK     1      16.044  65.941   8.379  1.00  0.00    -0.160 NA
HETATM   12  N6  UNK     1      16.623  67.148   8.146  1.00  0.00    -0.225 N 
HETATM   13  C17 UNK     1      17.924  67.424   7.720  1.00  0.00     0.134 A 
HETATM   14  N7  UNK     1      20.695  69.212   7.651  1.00  0.00    -0.186 N 
HETATM   15  H14 UNK     1      20.772  69.166   8.656  1.00  0.00     0.184 HD
ENDROOT
BRANCH   3  16
HETATM   16  C5  UNK     1      19.098  69.035   4.430  1.00  0.00     0.089 A 
HETATM   17  C6  UNK     1      19.560  69.485   3.197  1.00  0.00     0.037 A 
HETATM   18  C7  UNK     1      18.726  69.364   2.091  1.00  0.00     0.047 A 
HETATM   19  C8  UNK     1      17.475  68.786   2.251  1.00  0.00     0.140 A 
HETATM   20  F1  UNK     1      16.671  68.651   1.189  1.00  0.00    -0.204 F 
HETATM   21  C9  UNK     1      17.075  68.356   3.513  1.00  0.00     0.070 A 
HETATM   22  C10 UNK     1      15.741  67.712   3.727  1.00  0.00     0.074 C 
HETATM   23  N3  UNK     1      17.869  68.482   4.607  1.00  0.00    -0.248 NA
ENDBRANCH   3  16
BRANCH   1  24
HETATM   24  N1  UNK     1      22.912  70.058   7.221  1.00  0.00    -0.158 N 
HETATM   25  C2  UNK     1      23.627  69.335   8.165  1.00  0.00     0.232 C 
HETATM   26  C1  UNK     1      24.973  69.951   8.447  1.00  0.00     0.118 C 
HETATM   27  O1  UNK     1      23.285  68.311   8.748  1.00  0.00    -0.273 OA
HETATM   28  H4  UNK     1      23.320  70.890   6.822  1.00  0.00     0.187 HD
ENDBRANCH   1  24
TORSDOF 2
ENDMDL
MODEL 4
REMARK VINA RESULT:      -9.0      2.875      6.701
REMARK  2 active torsions:
REMARK  status: ('A' for Active; 'I' for Inactive)
REMARK       I    between atoms: C2_2  and  N1_4 
REMARK    1  A    between atoms: N1_4  and  C3_5 
REMARK    2  A    between atoms: C4_7  and  C5_8 
ROOT
HETATM    1  C3  UNK     1      15.615  67.083   8.644  1.00  0.00     0.708 A 
HETATM    2  N2  UNK     1      14.881  66.166   8.063  1.00  0.00    -0.060 NA
HETATM    3  C4  UNK     1      15.083  66.299   6.712  1.00  0.00     0.132 A 
HETATM    4  C11 UNK     1      15.989  67.310   6.460  1.00  0.00     0.092 A 
HETATM    5  C12 UNK     1      16.677  67.736   5.297  1.00  0.00     0.011 A 
HETATM    6  C13 UNK     1      17.875  67.053   4.798  1.00  0.00     0.019 A 
HETATM    7  C14 UNK     1      18.403  67.321   3.590  1.00  0.00     0.053 A 
HETATM    8  C15 UNK     1      17.803  68.311   2.771  1.00  0.00     0.151 A 
HETATM    9  N4  UNK     1      18.101  68.757   1.571  1.00  0.00    -0.221 NA
HETATM   10  C16 UNK     1      17.134  69.690   1.352  1.00  0.00     0.258 A 
HETATM   11  N5  UNK     1      16.256  69.870   2.339  1.00  0.00    -0.160 NA
HETATM   12  N6  UNK     1      16.673  68.969   3.266  1.00  0.00    -0.225 N 
HETATM   13  C17 UNK     1      16.116  68.678   4.513  1.00  0.00     0.134 A 
HETATM   14  N7  UNK     1      16.275  67.836   7.698  1.00  0.00    -0.186 N 
HETATM   15  H14 UNK     1      16.911  68.597   7.887  1.00  0.00     0.184 HD
ENDROOT
BRANCH   3  16
HETATM   16  C5  UNK     1      14.489  65.410   5.727  1.00  0.00     0.089 A 
HETATM   17  C6  UNK     1      15.272  64.902   4.697  1.00  0.00     0.037 A 
HETATM   18  C7  UNK     1      14.679  64.058   3.765  1.00  0.00     0.047 A 
HETATM   19  C8  UNK     1      13.335  63.739   3.906  1.00  0.00     0.140 A 
HETATM   20  F1  UNK     1      12.759  62.914   3.024  1.00  0.00    -0.204 F 
HETATM   21  C9  UNK     1      12.609  64.283   4.962  1.00  0.00     0.070 A 
HETATM   22  C10 UNK     1      11.163  63.951   5.160  1.00  0.00     0.074 C 
HETATM   23  N3  UNK     1      13.169  65.122   5.870  1.00  0.00    -0.248 NA
ENDBRANCH   3  16
BRANCH   1  24
HETATM   24  N1  UNK     1      15.770  67.294   9.993  1.00  0.00    -0.158 N 
HETATM   25  C2  UNK     1      17.018  67.212  10.593  1.00  0.00     0.232 C 
HETATM   26  C1  UNK     1      16.961  67.540  12.062  1.00  0.00     0.118 C 
HETATM   27  O1  UNK     1      18.088  66.918  10.069  1.00  0.00    -0.273 OA
HETATM   28  H4  UNK     1      14.969  67.548  10.551  1.00  0.00     0.187 HD
ENDBRANCH   1  24
TORSDOF 2
ENDMDL
MODEL 5
REMARK VINA RESULT:      -9.0      4.806      7.291
REMARK  2 active torsions:
REMARK  status: ('A' for Active; 'I' for Inactive)
REMARK       I    between atoms: C2_2  and  N1_4 
REMARK    1  A    between atoms: N1_4  and  C3_5 
REMARK    2  A    between atoms: C4_7  and  C5_8 
ROOT
HETATM    1  C3  UNK     1      20.404  69.200   4.218  1.00  0.00     0.708 A 
HETATM    2  N2  UNK     1      19.195  68.891   4.617  1.00  0.00    -0.060 NA
HETATM    3  C4  UNK     1      19.264  68.709   5.976  1.00  0.00     0.132 A 
HETATM    4  C11 UNK     1      20.549  68.938   6.426  1.00  0.00     0.092 A 
HETATM    5  C12 UNK     1      21.123  69.068   7.715  1.00  0.00     0.011 A 
HETATM    6  C13 UNK     1      21.034  70.307   8.493  1.00  0.00     0.019 A 
HETATM    7  C14 UNK     1      21.390  70.367   9.789  1.00  0.00     0.053 A 
HETATM    8  C15 UNK     1      21.890  69.205  10.430  1.00  0.00     0.151 A 
HETATM    9  N4  UNK     1      22.294  68.985  11.661  1.00  0.00    -0.221 NA
HETATM   10  C16 UNK     1      22.636  67.668  11.632  1.00  0.00     0.258 A 
HETATM   11  N5  UNK     1      22.485  67.047  10.461  1.00  0.00    -0.160 NA
HETATM   12  N6  UNK     1      21.988  68.034   9.671  1.00  0.00    -0.225 N 
HETATM   13  C17 UNK     1      21.603  67.969   8.331  1.00  0.00     0.134 A 
HETATM   14  N7  UNK     1      21.275  69.195   5.286  1.00  0.00    -0.186 N 
HETATM   15  H14 UNK     1      22.259  69.410   5.246  1.00  0.00     0.184 HD
ENDROOT
BRANCH   3  16
HETATM   16  C5  UNK     1      18.102  68.419   6.800  1.00  0.00     0.089 A 
HETATM   17  C6  UNK     1      17.780  69.263   7.857  1.00  0.00     0.037 A 
HETATM   18  C7  UNK     1      16.666  68.961   8.633  1.00  0.00     0.047 A 
HETATM   19  C8  UNK     1      15.908  67.843   8.315  1.00  0.00     0.140 A 
HETATM   20  F1  UNK     1      14.825  67.553   9.047  1.00  0.00    -0.204 F 
HETATM   21  C9  UNK     1      16.287  67.040   7.243  1.00  0.00     0.070 A 
HETATM   22  C10 UNK     1      15.488  65.835   6.856  1.00  0.00     0.074 C 
HETATM   23  N3  UNK     1      17.381  67.311   6.486  1.00  0.00    -0.248 NA
ENDBRANCH   3  16
BRANCH   1  24
HETATM   24  N1  UNK     1      20.804  69.520   2.943  1.00  0.00    -0.158 N 
HETATM   25  C2  UNK     1      22.149  69.608   2.614  1.00  0.00     0.232 C 
HETATM   26  C1  UNK     1      22.354  69.908   1.152  1.00  0.00     0.118 C 
HETATM   27  O1  UNK     1      23.116  69.471   3.356  1.00  0.00    -0.273 OA
HETATM   28  H4  UNK     1      20.109  69.657   2.225  1.00  0.00     0.187 HD
ENDBRANCH   1  24
TORSDOF 2
ENDMDL
MODEL 6
REMARK VINA RESULT:      -8.6      2.402      5.905
REMARK  2 active torsions:
REMARK  status: ('A' for Active; 'I' for Inactive)
REMARK       I    between atoms: C2_2  and  N1_4 
REMARK    1  A    between atoms: N1_4  and  C3_5 
REMARK    2  A    between atoms: C4_7  and  C5_8 
ROOT
HETATM    1  C3  UNK     1      17.906  68.419   9.221  1.00  0.00     0.708 A 
HETATM    2  N2  UNK     1      18.620  68.862   8.215  1.00  0.00    -0.060 NA
HETATM    3  C4  UNK     1      18.068  68.329   7.077  1.00  0.00     0.132 A 
HETATM    4  C11 UNK     1      16.968  67.558   7.394  1.00  0.00     0.092 A 
HETATM    5  C12 UNK     1      15.949  66.946   6.621  1.00  0.00     0.011 A 
HETATM    6  C13 UNK     1      14.802  67.695   6.101  1.00  0.00     0.019 A 
HETATM    7  C14 UNK     1      13.951  67.171   5.200  1.00  0.00     0.053 A 
HETATM    8  C15 UNK     1      14.149  65.842   4.746  1.00  0.00     0.151 A 
HETATM    9  N4  UNK     1      13.490  65.101   3.883  1.00  0.00    -0.221 NA
HETATM   10  C16 UNK     1      14.196  63.937   3.890  1.00  0.00     0.258 A 
HETATM   11  N5  UNK     1      15.247  63.892   4.709  1.00  0.00    -0.160 NA
HETATM   12  N6  UNK     1      15.235  65.131   5.265  1.00  0.00    -0.225 N 
HETATM   13  C17 UNK     1      16.127  65.682   6.187  1.00  0.00     0.134 A 
HETATM   14  N7  UNK     1      16.913  67.580   8.768  1.00  0.00    -0.186 N 
HETATM   15  H14 UNK     1      16.222  67.119   9.342  1.00  0.00     0.184 HD
ENDROOT
BRANCH   3  16
HETATM   16  C5  UNK     1      18.543  68.642   5.740  1.00  0.00     0.089 A 
HETATM   17  C6  UNK     1      19.889  68.928   5.536  1.00  0.00     0.037 A 
HETATM   18  C7  UNK     1      20.317  69.229   4.248  1.00  0.00     0.047 A 
HETATM   19  C8  UNK     1      19.393  69.217   3.212  1.00  0.00     0.140 A 
HETATM   20  F1  UNK     1      19.799  69.490   1.966  1.00  0.00    -0.204 F 
HETATM   21  C9  UNK     1      18.061  68.922   3.485  1.00  0.00     0.070 A 
HETATM   22  C10 UNK     1      17.036  68.881   2.395  1.00  0.00     0.074 C 
HETATM   23  N3  UNK     1      17.623  68.642   4.740  1.00  0.00    -0.248 NA
ENDBRANCH   3  16
BRANCH   1  24
HETATM   24  N1  UNK     1      18.059  68.732  10.551  1.00  0.00    -0.158 N 
HETATM   25  C2  UNK     1      17.423  67.993  11.538  1.00  0.00     0.232 C 
HETATM   26  C1  UNK     1      17.780  68.473  12.920  1.00  0.00     0.118 C 
HETATM   27  O1  UNK     1      16.652  67.050  11.394  1.00  0.00    -0.273 OA
HETATM   28  H4  UNK     1      18.671  69.489  10.815  1.00  0.00     0.187 HD
ENDBRANCH   1  24
TORSDOF 2
ENDMDL
MODEL 7
REMARK VINA RESULT:      -8.5      5.461      7.897
REMARK  2 active torsions:
REMARK  status: ('A' for Active; 'I' for Inactive)
REMARK       I    between atoms: C2_2  and  N1_4 
REMARK    1  A    between atoms: N1_4  and  C3_5 
REMARK    2  A    between atoms: C4_7  and  C5_8 
ROOT
HETATM    1  C3  UNK     1      22.092  69.591   4.815  1.00  0.00     0.708 A 
HETATM    2  N2  UNK     1      22.725  70.094   5.846  1.00  0.00    -0.060 NA
HETATM    3  C4  UNK     1      21.959  69.820   6.951  1.00  0.00     0.132 A 
HETATM    4  C11 UNK     1      20.835  69.104   6.589  1.00  0.00     0.092 A 
HETATM    5  C12 UNK     1      19.833  68.424   7.324  1.00  0.00     0.011 A 
HETATM    6  C13 UNK     1      20.041  67.085   7.883  1.00  0.00     0.019 A 
HETATM    7  C14 UNK     1      19.179  66.528   8.752  1.00  0.00     0.053 A 
HETATM    8  C15 UNK     1      18.012  67.241   9.130  1.00  0.00     0.151 A 
HETATM    9  N4  UNK     1      17.028  66.943   9.948  1.00  0.00    -0.221 NA
HETATM   10  C16 UNK     1      16.237  68.049   9.877  1.00  0.00     0.258 A 
HETATM   11  N5  UNK     1      16.651  69.017   9.058  1.00  0.00    -0.160 NA
HETATM   12  N6  UNK     1      17.814  68.508   8.574  1.00  0.00    -0.225 N 
HETATM   13  C17 UNK     1      18.719  69.092   7.686  1.00  0.00     0.134 A 
HETATM   14  N7  UNK     1      20.907  69.016   5.218  1.00  0.00    -0.186 N 
HETATM   15  H14 UNK     1      20.242  68.551   4.618  1.00  0.00     0.184 HD
ENDROOT
BRANCH   3  16
HETATM   16  C5  UNK     1      22.362  70.161   8.304  1.00  0.00     0.089 A 
HETATM   17  C6  UNK     1      21.394  70.442   9.262  1.00  0.00     0.037 A 
HETATM   18  C7  UNK     1      21.807  70.770  10.549  1.00  0.00     0.047 A 
HETATM   19  C8  UNK     1      23.165  70.788  10.835  1.00  0.00     0.140 A 
HETATM   20  F1  UNK     1      23.571  71.087  12.075  1.00  0.00    -0.204 F 
HETATM   21  C9  UNK     1      24.081  70.497   9.830  1.00  0.00     0.070 A 
HETATM   22  C10 UNK     1      25.553  70.489  10.100  1.00  0.00     0.074 C 
HETATM   23  N3  UNK     1      23.696  70.191   8.564  1.00  0.00    -0.248 NA
ENDBRANCH   3  16
BRANCH   1  24
HETATM   24  N1  UNK     1      22.509  69.581   3.506  1.00  0.00    -0.158 N 
HETATM   25  C2  UNK     1      21.595  69.607   2.462  1.00  0.00     0.232 C 
HETATM   26  C1  UNK     1      22.274  69.653   1.118  1.00  0.00     0.118 C 
HETATM   27  O1  UNK     1      20.370  69.599   2.533  1.00  0.00    -0.273 OA
HETATM   28  H4  UNK     1      23.496  69.590   3.299  1.00  0.00     0.187 HD
ENDBRANCH   1  24
TORSDOF 2
ENDMDL
MODEL 8
REMARK VINA RESULT:      -8.5      2.952      3.740
REMARK  2 active torsions:
REMARK  status: ('A' for Active; 'I' for Inactive)
REMARK       I    between atoms: C2_2  and  N1_4 
REMARK    1  A    between atoms: N1_4  and  C3_5 
REMARK    2  A    between atoms: C4_7  and  C5_8 
ROOT
HETATM    1  C3  UNK     1      15.601  66.884   5.567  1.00  0.00     0.708 A 
HETATM    2  N2  UNK     1      16.155  67.358   4.479  1.00  0.00    -0.060 NA
HETATM    3  C4  UNK     1      17.355  67.908   4.857  1.00  0.00     0.132 A 
HETATM    4  C11 UNK     1      17.552  67.742   6.213  1.00  0.00     0.092 A 
HETATM    5  C12 UNK     1      18.662  67.945   7.071  1.00  0.00     0.011 A 
HETATM    6  C13 UNK     1      19.759  66.980   7.177  1.00  0.00     0.019 A 
HETATM    7  C14 UNK     1      20.905  67.263   7.822  1.00  0.00     0.053 A 
HETATM    8  C15 UNK     1      21.060  68.529   8.445  1.00  0.00     0.151 A 
HETATM    9  N4  UNK     1      22.054  69.060   9.119  1.00  0.00    -0.221 NA
HETATM   10  C16 UNK     1      21.576  70.296   9.431  1.00  0.00     0.258 A 
HETATM   11  N5  UNK     1      20.342  70.572   9.009  1.00  0.00    -0.160 NA
HETATM   12  N6  UNK     1      19.998  69.433   8.353  1.00  0.00    -0.225 N 
HETATM   13  C17 UNK     1      18.816  69.144   7.668  1.00  0.00     0.134 A 
HETATM   14  N7  UNK     1      16.399  67.137   6.660  1.00  0.00    -0.186 N 
HETATM   15  H14 UNK     1      16.203  66.865   7.611  1.00  0.00     0.184 HD
ENDROOT
BRANCH   3  16
HETATM   16  C5  UNK     1      18.301  68.481   3.914  1.00  0.00     0.089 A 
HETATM   17  C6  UNK     1      17.883  68.794   2.625  1.00  0.00     0.037 A 
HETATM   18  C7  UNK     1      18.809  69.337   1.740  1.00  0.00     0.047 A 
HETATM   19  C8  UNK     1      20.107  69.562   2.179  1.00  0.00     0.140 A 
HETATM   20  F1  UNK     1      21.000  70.099   1.339  1.00  0.00    -0.204 F 
HETATM   21  C9  UNK     1      20.458  69.225   3.483  1.00  0.00     0.070 A 
HETATM   22  C10 UNK     1      21.841  69.467   4.001  1.00  0.00     0.074 C 
HETATM   23  N3  UNK     1      19.571  68.679   4.354  1.00  0.00    -0.248 NA
ENDBRANCH   3  16
BRANCH   1  24
HETATM   24  N1  UNK     1      14.413  66.199   5.665  1.00  0.00    -0.158 N 
HETATM   25  C2  UNK     1      14.245  64.965   5.052  1.00  0.00     0.232 C 
HETATM   26  C1  UNK     1      12.891  64.371   5.342  1.00  0.00     0.118 C 
HETATM   27  O1  UNK     1      15.044  64.360   4.345  1.00  0.00    -0.273 OA
HETATM   28  H4  UNK     1      13.664  66.581   6.221  1.00  0.00     0.187 HD
ENDBRANCH   1  24
TORSDOF 2
ENDMDL
MODEL 9
REMARK VINA RESULT:      -8.4      3.714      7.219
REMARK  2 active torsions:
REMARK  status: ('A' for Active; 'I' for Inactive)
REMARK       I    between atoms: C2_2  and  N1_4 
REMARK    1  A    between atoms: N1_4  and  C3_5 
REMARK    2  A    between atoms: C4_7  and  C5_8 
ROOT
HETATM    1  C3  UNK     1      19.709  68.129  12.106  1.00  0.00     0.708 A 
HETATM    2  N2  UNK     1      20.455  68.570  11.123  1.00  0.00    -0.060 NA
HETATM    3  C4  UNK     1      19.714  68.435   9.975  1.00  0.00     0.132 A 
HETATM    4  C11 UNK     1      18.467  67.920  10.269  1.00  0.00     0.092 A 
HETATM    5  C12 UNK     1      17.277  67.755   9.516  1.00  0.00     0.011 A 
HETATM    6  C13 UNK     1      16.346  68.859   9.269  1.00  0.00     0.019 A 
HETATM    7  C14 UNK     1      15.334  68.760   8.387  1.00  0.00     0.053 A 
HETATM    8  C15 UNK     1      15.138  67.544   7.684  1.00  0.00     0.151 A 
HETATM    9  N4  UNK     1      14.254  67.184   6.781  1.00  0.00    -0.221 NA
HETATM   10  C16 UNK     1      14.619  65.902   6.501  1.00  0.00     0.258 A 
HETATM   11  N5  UNK     1      15.665  65.428   7.178  1.00  0.00    -0.160 NA
HETATM   12  N6  UNK     1      16.021  66.492   7.944  1.00  0.00    -0.225 N 
HETATM   13  C17 UNK     1      17.081  66.601   8.846  1.00  0.00     0.134 A 
HETATM   14  N7  UNK     1      18.501  67.678  11.623  1.00  0.00    -0.186 N 
HETATM   15  H14 UNK     1      17.747  67.301  12.177  1.00  0.00     0.184 HD
ENDROOT
BRANCH   3  16
HETATM   16  C5  UNK     1      20.176  68.881   8.672  1.00  0.00     0.089 A 
HETATM   17  C6  UNK     1      21.071  69.941   8.584  1.00  0.00     0.037 A 
HETATM   18  C7  UNK     1      21.494  70.352   7.325  1.00  0.00     0.047 A 
HETATM   19  C8  UNK     1      21.024  69.680   6.205  1.00  0.00     0.140 A 
HETATM   20  F1  UNK     1      21.438  70.057   4.989  1.00  0.00    -0.204 F 
HETATM   21  C9  UNK     1      20.129  68.626   6.364  1.00  0.00     0.070 A 
HETATM   22  C10 UNK     1      19.611  67.864   5.184  1.00  0.00     0.074 C 
HETATM   23  N3  UNK     1      19.692  68.223   7.585  1.00  0.00    -0.248 NA
ENDBRANCH   3  16
BRANCH   1  24
HETATM   24  N1  UNK     1      20.019  68.119  13.445  1.00  0.00    -0.158 N 
HETATM   25  C2  UNK     1      19.516  67.138  14.288  1.00  0.00     0.232 C 
HETATM   26  C1  UNK     1      20.033  67.286  15.696  1.00  0.00     0.118 C 
HETATM   27  O1  UNK     1      18.744  66.228  14.009  1.00  0.00    -0.273 OA
HETATM   28  H4  UNK     1      20.650  68.813  13.814  1.00  0.00     0.187 HD
ENDBRANCH   1  24
TORSDOF 2
ENDMDL
MODEL 10
REMARK VINA RESULT:      -8.0      2.117      5.399
REMARK  2 active torsions:
REMARK  status: ('A' for Active; 'I' for Inactive)
REMARK       I    between atoms: C2_2  and  N1_4 
REMARK    1  A    between atoms: N1_4  and  C3_5 
REMARK    2  A    between atoms: C4_7  and  C5_8 
ROOT
HETATM    1  C3  UNK     1      13.319  64.671   4.874  1.00  0.00     0.708 A 
HETATM    2  N2  UNK     1      13.669  65.130   6.051  1.00  0.00    -0.060 NA
HETATM    3  C4  UNK     1      14.619  66.096   5.829  1.00  0.00     0.132 A 
HETATM    4  C11 UNK     1      14.836  66.252   4.475  1.00  0.00     0.092 A 
HETATM    5  C12 UNK     1      15.549  67.204   3.704  1.00  0.00     0.011 A 
HETATM    6  C13 UNK     1      15.000  68.524   3.383  1.00  0.00     0.019 A 
HETATM    7  C14 UNK     1      15.749  69.500   2.838  1.00  0.00     0.053 A 
HETATM    8  C15 UNK     1      17.113  69.247   2.538  1.00  0.00     0.151 A 
HETATM    9  N4  UNK     1      18.053  70.005   2.021  1.00  0.00    -0.221 NA
HETATM   10  C16 UNK     1      19.132  69.174   2.008  1.00  0.00     0.258 A 
HETATM   11  N5  UNK     1      18.928  67.940   2.470  1.00  0.00    -0.160 NA
HETATM   12  N6  UNK     1      17.619  67.977   2.830  1.00  0.00    -0.225 N 
HETATM   13  C17 UNK     1      16.845  66.971   3.412  1.00  0.00     0.134 A 
HETATM   14  N7  UNK     1      14.042  65.297   3.883  1.00  0.00    -0.186 N 
HETATM   15  H14 UNK     1      13.952  65.132   2.892  1.00  0.00     0.184 HD
ENDROOT
BRANCH   3  16
HETATM   16  C5  UNK     1      15.208  66.891   6.893  1.00  0.00     0.089 A 
HETATM   17  C6  UNK     1      15.545  68.219   6.654  1.00  0.00     0.037 A 
HETATM   18  C7  UNK     1      16.112  68.957   7.687  1.00  0.00     0.047 A 
HETATM   19  C8  UNK     1      16.304  68.350   8.920  1.00  0.00     0.140 A 
HETATM   20  F1  UNK     1      16.835  69.058   9.926  1.00  0.00    -0.204 F 
HETATM   21  C9  UNK     1      15.944  67.017   9.092  1.00  0.00     0.070 A 
HETATM   22  C10 UNK     1      16.119  66.330  10.410  1.00  0.00     0.074 C 
HETATM   23  N3  UNK     1      15.405  66.277   8.089  1.00  0.00    -0.248 NA
ENDBRANCH   3  16
BRANCH   1  24
HETATM   24  N1  UNK     1      12.358  63.727   4.602  1.00  0.00    -0.158 N 
HETATM   25  C2  UNK     1      11.007  64.038   4.674  1.00  0.00     0.232 C 
HETATM   26  C1  UNK     1      10.138  62.873   4.275  1.00  0.00     0.118 C 
HETATM   27  O1  UNK     1      10.496  65.101   5.008  1.00  0.00    -0.273 OA
HETATM   28  H4  UNK     1      12.638  62.804   4.309  1.00  0.00     0.187 HD
ENDBRANCH   1  24
TORSDOF 2
ENDMDL
