REMARK  2 active torsions:
REMARK  status: ('A' for Active; 'I' for Inactive)
REMARK    1  A    between atoms: C5_6  and  C6_7 
REMARK    2  A    between atoms: C8_11  and  C9_12 
ROOT
HETATM    1  C6  UNL     1      -1.014  -1.756  -0.455  1.00  0.00     0.091 A 
HETATM    2  N1  UNL     1      -1.123  -2.999  -0.976  1.00  0.00    -0.275 N 
HETATM    3  N2  UNL     1       0.003  -3.624  -0.795  1.00  0.00    -0.186 NA
HETATM    4  C7  UNL     1       0.875  -2.826  -0.160  1.00  0.00     0.153 A 
HETATM    5  C8  UNL     1       0.253  -1.618   0.072  1.00  0.00     0.025 A 
HETATM    6  H4  UNL     1      -1.961  -3.411  -1.449  1.00  0.00     0.189 HD
ENDROOT
BRANCH   5   7
HETATM    7  C9  UNL     1       0.753  -0.417   0.728  1.00  0.00    -0.008 A 
HETATM    8  C10 UNL     1       0.135  -0.020   1.899  1.00  0.00     0.032 A 
HETATM    9  C11 UNL     1       0.577   1.101   2.545  1.00  0.00     0.118 A 
HETATM   10  N3  UNL     1       1.603   1.817   2.052  1.00  0.00    -0.260 NA
HETATM   11  C12 UNL     1       2.202   1.423   0.908  1.00  0.00     0.067 A 
HETATM   12  C13 UNL     1       3.261   2.161   0.397  1.00  0.00     0.032 A 
HETATM   13  C17 UNL     1       1.824   0.313   0.196  1.00  0.00     0.004 A 
HETATM   14  C14 UNL     1       3.914   1.812  -0.767  1.00  0.00     0.002 A 
HETATM   15  C15 UNL     1       3.477   0.683  -1.429  1.00  0.00     0.001 A 
HETATM   16  C16 UNL     1       2.431  -0.095  -0.976  1.00  0.00     0.014 A 
ENDBRANCH   5   7
BRANCH   1  17
HETATM   17  C5  UNL     1      -2.048  -0.697  -0.437  1.00  0.00     0.087 A 
HETATM   18  C4  UNL     1      -3.209  -0.914   0.271  1.00  0.00     0.034 A 
HETATM   19  C3  UNL     1      -4.145   0.117   0.251  1.00  0.00     0.005 A 
HETATM   20  C2  UNL     1      -3.829   1.255  -0.470  1.00  0.00     0.039 A 
HETATM   21  C1  UNL     1      -2.648   1.411  -1.159  1.00  0.00     0.103 A 
HETATM   22 BR1  UNL     1      -2.250   2.979  -2.133  1.00  0.00    -0.029 Br
HETATM   23  N4  UNL     1      -1.764   0.407  -1.126  1.00  0.00    -0.239 NA
ENDBRANCH   1  17
TORSDOF 2
