REMARK  3 active torsions:
REMARK  status: ('A' for Active; 'I' for Inactive)
REMARK       I    between atoms: C2_2  and  N1_4 
REMARK    1  A    between atoms: N1_4  and  C3_5 
REMARK    2  A    between atoms: C4_7  and  C5_8 
REMARK    3  A    between atoms: C11_16  and  C12_17 
ROOT
HETATM    1  C3  UNL     1      -1.733  -2.162  -0.149  1.00  0.00     0.708 A 
HETATM    2  N2  UNL     1      -0.411  -2.358   0.065  1.00  0.00    -0.060 NA
HETATM    3  C4  UNL     1       0.242  -1.159   0.035  1.00  0.00     0.132 A 
HETATM    4  C11 UNL     1      -0.729  -0.232  -0.206  1.00  0.00     0.092 A 
HETATM    5  N7  UNL     1      -1.918  -0.852  -0.315  1.00  0.00    -0.186 N 
HETATM    6  H14 UNL     1      -2.826  -0.393  -0.497  1.00  0.00     0.184 HD
ENDROOT
BRANCH   4   7
HETATM    7  C12 UNL     1      -0.522   1.204  -0.328  1.00  0.00     0.011 A 
HETATM    8  C13 UNL     1       0.235   1.785  -1.320  1.00  0.00     0.019 A 
HETATM    9  C14 UNL     1       0.359   3.158  -1.331  1.00  0.00     0.053 A 
HETATM   10  C15 UNL     1      -0.256   3.959  -0.375  1.00  0.00     0.151 A 
HETATM   11  N4  UNL     1      -0.306   5.287  -0.147  1.00  0.00    -0.221 NA
HETATM   12  N6  UNL     1      -0.991   3.348   0.585  1.00  0.00    -0.225 N 
HETATM   13  C16 UNL     1      -1.067   5.499   0.945  1.00  0.00     0.258 A 
HETATM   14  N5  UNL     1      -1.470   4.294   1.368  1.00  0.00    -0.160 NA
HETATM   15  C17 UNL     1      -1.125   2.008   0.614  1.00  0.00     0.134 A 
ENDBRANCH   4   7
BRANCH   3  16
HETATM   16  C5  UNL     1       1.675  -1.003   0.234  1.00  0.00     0.089 A 
HETATM   17  C6  UNL     1       2.205  -1.446   1.450  1.00  0.00     0.037 A 
HETATM   18  C7  UNL     1       3.556  -1.337   1.733  1.00  0.00     0.047 A 
HETATM   19  C8  UNL     1       4.383  -0.773   0.778  1.00  0.00     0.140 A 
HETATM   20  F1  UNL     1       5.693  -0.676   1.072  1.00  0.00    -0.204 F 
HETATM   21  C9  UNL     1       3.840  -0.335  -0.428  1.00  0.00     0.070 A 
HETATM   22  C10 UNL     1       4.756   0.267  -1.429  1.00  0.00     0.074 C 
HETATM   23  N3  UNL     1       2.504  -0.460  -0.672  1.00  0.00    -0.248 NA
ENDBRANCH   3  16
BRANCH   1  24
HETATM   24  N1  UNL     1      -2.738  -3.167  -0.189  1.00  0.00    -0.158 N 
HETATM   25  C2  UNL     1      -4.111  -2.855  -0.415  1.00  0.00     0.232 C 
HETATM   26  C1  UNL     1      -5.168  -3.901  -0.456  1.00  0.00     0.118 C 
HETATM   27  O1  UNL     1      -4.473  -1.665  -0.591  1.00  0.00    -0.273 OA
HETATM   28  H4  UNL     1      -2.467  -4.171  -0.046  1.00  0.00     0.187 HD
ENDBRANCH   1  24
TORSDOF 3
