REMARK  2 active torsions:
REMARK  status: ('A' for Active; 'I' for Inactive)
REMARK    1  A    between atoms: C5_7  and  N3_8 
REMARK    2  A    between atoms: C6_10  and  C7_11 
ROOT
HETATM    1  C1  UNL     1      -4.128   2.027   1.399  1.00  0.00     0.074 C 
HETATM    2  C2  UNL     1      -3.231   1.421   0.379  1.00  0.00     0.070 A 
HETATM    3  N1  UNL     1      -2.644   0.217   0.539  1.00  0.00    -0.248 NA
HETATM    4  C3  UNL     1      -1.833  -0.328  -0.387  1.00  0.00     0.089 A 
HETATM    5  C4  UNL     1      -1.187  -1.611  -0.253  1.00  0.00     0.132 A 
HETATM    6  N2  UNL     1      -1.836  -2.807  -0.149  1.00  0.00    -0.060 NA
HETATM    7  C5  UNL     1      -0.945  -3.809  -0.038  1.00  0.00     0.699 A 
HETATM    8  N4  UNL     1       0.274  -3.254  -0.072  1.00  0.00    -0.187 N 
HETATM    9  C6  UNL     1       0.149  -1.906  -0.203  1.00  0.00     0.091 A 
HETATM   10  C15 UNL     1      -1.606   0.391  -1.542  1.00  0.00     0.037 A 
HETATM   11  C16 UNL     1      -2.191   1.626  -1.739  1.00  0.00     0.047 A 
HETATM   12  C17 UNL     1      -3.002   2.140  -0.780  1.00  0.00     0.140 A 
HETATM   13  F1  UNL     1      -3.574   3.367  -0.993  1.00  0.00    -0.204 F 
HETATM   14  H6  UNL     1       1.202  -3.715  -0.012  1.00  0.00     0.184 HD
ENDROOT
BRANCH   9  15
HETATM   15  C7  UNL     1       1.258  -0.951  -0.276  1.00  0.00    -0.004 A 
HETATM   16  C8  UNL     1       2.199  -1.005  -1.310  1.00  0.00     0.016 A 
HETATM   17  C9  UNL     1       3.237  -0.081  -1.343  1.00  0.00     0.035 A 
HETATM   18  C10 UNL     1       3.336   0.883  -0.358  1.00  0.00     0.085 A 
HETATM   19  N5  UNL     1       4.343   1.765  -0.405  1.00  0.00    -0.257 NA
HETATM   20  C13 UNL     1       2.424   0.941   0.652  1.00  0.00     0.086 A 
HETATM   21  C11 UNL     1       4.501   2.735   0.525  1.00  0.00     0.136 A 
HETATM   22  C12 UNL     1       3.570   2.791   1.552  1.00  0.00     0.136 A 
HETATM   23  N6  UNL     1       2.547   1.905   1.612  1.00  0.00    -0.257 NA
HETATM   24  C14 UNL     1       1.385   0.034   0.704  1.00  0.00     0.048 A 
ENDBRANCH   9  15
BRANCH   7  25
HETATM   25  N3  UNL     1      -1.236  -5.205   0.091  1.00  0.00    -0.233 N 
HETATM   26  H4  UNL     1      -2.027  -5.482   0.679  1.00  0.00     0.174 HD
HETATM   27  H5  UNL     1      -0.663  -5.933  -0.397  1.00  0.00     0.174 HD
ENDBRANCH   7  25
TORSDOF 2
