REMARK  2 active torsions:
REMARK  status: ('A' for Active; 'I' for Inactive)
REMARK    1  A    between atoms: C6_6  and  C7_7 
REMARK    2  A    between atoms: C8_9  and  N2_10 
ROOT
HETATM    1  C7  UNL     1      -1.476  -1.508  -0.302  1.00  0.00     0.106 A 
HETATM    2  N1  UNL     1      -2.344  -2.463  -0.541  1.00  0.00    -0.221 NA
HETATM    3  C8  UNL     1      -2.162  -3.521  -1.033  1.00  0.00     0.165 A 
HETATM    4  S1  UNL     1      -0.295  -3.418  -1.360  1.00  0.00    -0.050 SA
HETATM    5  C9  UNL     1      -0.203  -1.762  -0.664  1.00  0.00     0.050 A 
HETATM    6  C10 UNL     1       1.030  -1.008  -0.583  1.00  0.00    -0.014 A 
HETATM    7  C11 UNL     1       1.655  -0.708  -1.795  1.00  0.00     0.015 A 
HETATM    8  C12 UNL     1       2.844   0.008  -1.829  1.00  0.00     0.035 A 
HETATM    9  C13 UNL     1       3.418   0.429  -0.656  1.00  0.00     0.085 A 
HETATM   10  N3  UNL     1       4.583   1.128  -0.712  1.00  0.00    -0.257 NA
HETATM   11  C14 UNL     1       5.152   1.544   0.432  1.00  0.00     0.136 A 
HETATM   12  C15 UNL     1       4.549   1.258   1.656  1.00  0.00     0.136 A 
HETATM   13  N4  UNL     1       3.385   0.559   1.716  1.00  0.00    -0.257 NA
HETATM   14  C16 UNL     1       2.813   0.142   0.569  1.00  0.00     0.086 A 
HETATM   15  C17 UNL     1       1.614  -0.582   0.579  1.00  0.00     0.046 A 
ENDROOT
BRANCH   1  16
HETATM   16  C6  UNL     1      -1.876  -0.220   0.332  1.00  0.00     0.087 A 
HETATM   17  C5  UNL     1      -1.933  -0.153   1.726  1.00  0.00     0.034 A 
HETATM   18  C4  UNL     1      -2.308   1.042   2.334  1.00  0.00     0.004 A 
HETATM   19  C3  UNL     1      -2.615   2.129   1.534  1.00  0.00     0.027 A 
HETATM   20  C2  UNL     1      -2.549   2.033   0.138  1.00  0.00     0.031 A 
HETATM   21  C1  UNL     1      -2.888   3.225  -0.686  1.00  0.00     0.070 C 
HETATM   22  N5  UNL     1      -2.178   0.849  -0.431  1.00  0.00    -0.252 NA
ENDBRANCH   1  16
BRANCH   3  23
HETATM   23  N2  UNL     1      -2.865  -4.692  -1.398  1.00  0.00    -0.378 N 
HETATM   24  H7  UNL     1      -3.589  -4.602  -2.150  1.00  0.00     0.158 HD
HETATM   25  H8  UNL     1      -2.662  -5.613  -0.927  1.00  0.00     0.158 HD
ENDBRANCH   3  23
TORSDOF 2
