MODEL 1
REMARK VINA RESULT:     -11.2      0.000      0.000
REMARK  3 active torsions:
REMARK  status: ('A' for Active; 'I' for Inactive)
REMARK       I    between atoms: C2_2  and  N1_4 
REMARK    1  A    between atoms: N1_4  and  C3_5 
REMARK    2  A    between atoms: C4_7  and  C5_8 
REMARK    3  A    between atoms: C11_16  and  C12_17 
ROOT
HETATM    1  C3  UNL     1      15.732  67.259   8.500  1.00  0.00     0.708 A 
HETATM    2  N2  UNL     1      14.970  66.291   7.939  1.00  0.00    -0.060 NA
HETATM    3  C4  UNL     1      15.055  66.371   6.578  1.00  0.00     0.132 A 
HETATM    4  C11 UNL     1      15.893  67.419   6.336  1.00  0.00     0.092 A 
HETATM    5  N7  UNL     1      16.295  67.947   7.506  1.00  0.00    -0.186 N 
HETATM    6  H14 UNL     1      16.933  68.752   7.621  1.00  0.00     0.184 HD
ENDROOT
BRANCH   4   7
HETATM    7  C12 UNL     1      16.296  67.900   5.022  1.00  0.00     0.011 A 
HETATM    8  C13 UNL     1      15.441  67.990   3.947  1.00  0.00     0.019 A 
HETATM    9  C14 UNL     1      15.939  68.460   2.750  1.00  0.00     0.053 A 
HETATM   10  C15 UNL     1      17.269  68.841   2.607  1.00  0.00     0.151 A 
HETATM   11  N4  UNL     1      18.008  69.321   1.587  1.00  0.00    -0.221 NA
HETATM   12  N6  UNL     1      18.078  68.735   3.689  1.00  0.00    -0.225 N 
HETATM   13  C16 UNL     1      19.266  69.513   2.032  1.00  0.00     0.258 A 
HETATM   14  N5  UNL     1      19.275  69.146   3.320  1.00  0.00    -0.160 NA
HETATM   15  C17 UNL     1      17.611  68.278   4.867  1.00  0.00     0.134 A 
ENDBRANCH   4   7
BRANCH   3  16
HETATM   16  C5  UNL     1      14.364  65.476   5.662  1.00  0.00     0.089 A 
HETATM   17  C6  UNL     1      15.143  64.802   4.715  1.00  0.00     0.037 A 
HETATM   18  C7  UNL     1      14.576  63.933   3.799  1.00  0.00     0.047 A 
HETATM   19  C8  UNL     1      13.206  63.742   3.836  1.00  0.00     0.140 A 
HETATM   20  F1  UNL     1      12.674  62.893   2.937  1.00  0.00    -0.204 F 
HETATM   21  C9  UNL     1      12.444  64.422   4.784  1.00  0.00     0.070 A 
HETATM   22  C10 UNL     1      10.977  64.195   4.794  1.00  0.00     0.074 C 
HETATM   23  N3  UNL     1      13.038  65.270   5.672  1.00  0.00    -0.248 NA
ENDBRANCH   3  16
BRANCH   1  24
HETATM   24  N1  UNL     1      15.901  67.497   9.892  1.00  0.00    -0.158 N 
HETATM   25  C2  UNL     1      17.113  68.022  10.427  1.00  0.00     0.232 C 
HETATM   26  C1  UNL     1      17.298  68.272  11.882  1.00  0.00     0.118 C 
HETATM   27  O1  UNL     1      18.078  68.297   9.670  1.00  0.00    -0.273 OA
HETATM   28  H4  UNL     1      15.113  67.278  10.550  1.00  0.00     0.187 HD
ENDBRANCH   1  24
TORSDOF 3
ENDMDL
MODEL 2
REMARK VINA RESULT:     -11.0      2.957      6.816
REMARK  3 active torsions:
REMARK  status: ('A' for Active; 'I' for Inactive)
REMARK       I    between atoms: C2_2  and  N1_4 
REMARK    1  A    between atoms: N1_4  and  C3_5 
REMARK    2  A    between atoms: C4_7  and  C5_8 
REMARK    3  A    between atoms: C11_16  and  C12_17 
ROOT
HETATM    1  C3  UNL     1      13.738  65.208   4.538  1.00  0.00     0.708 A 
HETATM    2  N2  UNL     1      14.662  65.851   3.786  1.00  0.00    -0.060 NA
HETATM    3  C4  UNL     1      15.406  66.677   4.579  1.00  0.00     0.132 A 
HETATM    4  C11 UNL     1      14.901  66.513   5.835  1.00  0.00     0.092 A 
HETATM    5  N7  UNL     1      13.893  65.622   5.796  1.00  0.00    -0.186 N 
HETATM    6  H14 UNL     1      13.330  65.308   6.604  1.00  0.00     0.184 HD
ENDROOT
BRANCH   4   7
HETATM    7  C12 UNL     1      15.370  67.190   7.035  1.00  0.00     0.011 A 
HETATM    8  C13 UNL     1      15.519  68.555   7.133  1.00  0.00     0.019 A 
HETATM    9  C14 UNL     1      15.973  69.081   8.324  1.00  0.00     0.053 A 
HETATM   10  C15 UNL     1      16.281  68.274   9.414  1.00  0.00     0.151 A 
HETATM   11  N4  UNL     1      16.731  68.507  10.663  1.00  0.00    -0.221 NA
HETATM   12  N6  UNL     1      16.122  66.936   9.276  1.00  0.00    -0.225 N 
HETATM   13  C16 UNL     1      16.850  67.323  11.296  1.00  0.00     0.258 A 
HETATM   14  N5  UNL     1      16.470  66.384  10.421  1.00  0.00    -0.160 NA
HETATM   15  C17 UNL     1      15.679  66.401   8.121  1.00  0.00     0.134 A 
ENDBRANCH   4   7
BRANCH   3  16
HETATM   16  C5  UNL     1      16.493  67.514   4.094  1.00  0.00     0.089 A 
HETATM   17  C6  UNL     1      16.242  68.301   2.966  1.00  0.00     0.037 A 
HETATM   18  C7  UNL     1      17.214  69.128   2.429  1.00  0.00     0.047 A 
HETATM   19  C8  UNL     1      18.456  69.161   3.038  1.00  0.00     0.140 A 
HETATM   20  F1  UNL     1      19.388  69.971   2.501  1.00  0.00    -0.204 F 
HETATM   21  C9  UNL     1      18.692  68.370   4.160  1.00  0.00     0.070 A 
HETATM   22  C10 UNL     1      20.036  68.429   4.787  1.00  0.00     0.074 C 
HETATM   23  N3  UNL     1      17.709  67.569   4.662  1.00  0.00    -0.248 NA
ENDBRANCH   3  16
BRANCH   1  24
HETATM   24  N1  UNL     1      12.781  64.265   4.072  1.00  0.00    -0.158 N 
HETATM   25  C2  UNL     1      11.415  64.310   4.481  1.00  0.00     0.232 C 
HETATM   26  C1  UNL     1      10.409  63.325   4.000  1.00  0.00     0.118 C 
HETATM   27  O1  UNL     1      11.016  65.200   5.272  1.00  0.00    -0.273 OA
HETATM   28  H4  UNL     1      13.084  63.509   3.410  1.00  0.00     0.187 HD
ENDBRANCH   1  24
TORSDOF 3
ENDMDL
MODEL 3
REMARK VINA RESULT:     -10.4      2.174      5.349
REMARK  3 active torsions:
REMARK  status: ('A' for Active; 'I' for Inactive)
REMARK       I    between atoms: C2_2  and  N1_4 
REMARK    1  A    between atoms: N1_4  and  C3_5 
REMARK    2  A    between atoms: C4_7  and  C5_8 
REMARK    3  A    between atoms: C11_16  and  C12_17 
ROOT
HETATM    1  C3  UNL     1      16.079  67.517   8.589  1.00  0.00     0.708 A 
HETATM    2  N2  UNL     1      16.775  68.145   7.613  1.00  0.00    -0.060 NA
HETATM    3  C4  UNL     1      16.478  67.584   6.403  1.00  0.00     0.132 A 
HETATM    4  C11 UNL     1      15.580  66.595   6.681  1.00  0.00     0.092 A 
HETATM    5  N7  UNL     1      15.348  66.566   8.006  1.00  0.00    -0.186 N 
HETATM    6  H14 UNL     1      14.711  65.915   8.495  1.00  0.00     0.184 HD
ENDROOT
BRANCH   4   7
HETATM    7  C12 UNL     1      14.965  65.707   5.706  1.00  0.00     0.011 A 
HETATM    8  C13 UNL     1      15.672  65.025   4.741  1.00  0.00     0.019 A 
HETATM    9  C14 UNL     1      14.977  64.212   3.871  1.00  0.00     0.053 A 
HETATM   10  C15 UNL     1      13.596  64.067   3.946  1.00  0.00     0.151 A 
HETATM   11  N4  UNL     1      12.682  63.362   3.248  1.00  0.00    -0.221 NA
HETATM   12  N6  UNL     1      12.938  64.756   4.908  1.00  0.00    -0.225 N 
HETATM   13  C16 UNL     1      11.467  63.611   3.774  1.00  0.00     0.258 A 
HETATM   14  N5  UNL     1      11.658  64.466   4.787  1.00  0.00    -0.160 NA
HETATM   15  C17 UNL     1      13.597  65.555   5.768  1.00  0.00     0.134 A 
ENDBRANCH   4   7
BRANCH   3  16
HETATM   16  C5  UNL     1      17.046  68.022   5.137  1.00  0.00     0.089 A 
HETATM   17  C6  UNL     1      18.438  68.139   5.066  1.00  0.00     0.037 A 
HETATM   18  C7  UNL     1      19.071  68.551   3.906  1.00  0.00     0.047 A 
HETATM   19  C8  UNL     1      18.291  68.850   2.803  1.00  0.00     0.140 A 
HETATM   20  F1  UNL     1      18.925  69.249   1.685  1.00  0.00    -0.204 F 
HETATM   21  C9  UNL     1      16.906  68.729   2.890  1.00  0.00     0.070 A 
HETATM   22  C10 UNL     1      16.099  69.060   1.688  1.00  0.00     0.074 C 
HETATM   23  N3  UNL     1      16.317  68.319   4.050  1.00  0.00    -0.248 NA
ENDBRANCH   3  16
BRANCH   1  24
HETATM   24  N1  UNL     1      16.119  67.816   9.978  1.00  0.00    -0.158 N 
HETATM   25  C2  UNL     1      17.253  67.505  10.786  1.00  0.00     0.232 C 
HETATM   26  C1  UNL     1      17.301  67.814  12.241  1.00  0.00     0.118 C 
HETATM   27  O1  UNL     1      18.262  66.953  10.282  1.00  0.00    -0.273 OA
HETATM   28  H4  UNL     1      15.292  68.278  10.429  1.00  0.00     0.187 HD
ENDBRANCH   1  24
TORSDOF 3
ENDMDL
MODEL 4
REMARK VINA RESULT:     -10.0      3.040      5.604
REMARK  3 active torsions:
REMARK  status: ('A' for Active; 'I' for Inactive)
REMARK       I    between atoms: C2_2  and  N1_4 
REMARK    1  A    between atoms: N1_4  and  C3_5 
REMARK    2  A    between atoms: C4_7  and  C5_8 
REMARK    3  A    between atoms: C11_16  and  C12_17 
ROOT
HETATM    1  C3  UNL     1      13.526  64.966   4.938  1.00  0.00     0.708 A 
HETATM    2  N2  UNL     1      13.910  65.356   6.176  1.00  0.00    -0.060 NA
HETATM    3  C4  UNL     1      14.904  66.287   6.076  1.00  0.00     0.132 A 
HETATM    4  C11 UNL     1      15.110  66.445   4.737  1.00  0.00     0.092 A 
HETATM    5  N7  UNL     1      14.270  65.640   4.061  1.00  0.00    -0.186 N 
HETATM    6  H14 UNL     1      14.208  65.556   3.033  1.00  0.00     0.184 HD
ENDROOT
BRANCH   4   7
HETATM    7  C12 UNL     1      16.082  67.340   4.126  1.00  0.00     0.011 A 
HETATM    8  C13 UNL     1      15.809  68.133   3.034  1.00  0.00     0.019 A 
HETATM    9  C14 UNL     1      16.813  68.940   2.543  1.00  0.00     0.053 A 
HETATM   10  C15 UNL     1      18.079  68.971   3.118  1.00  0.00     0.151 A 
HETATM   11  N4  UNL     1      19.218  69.642   2.856  1.00  0.00    -0.221 NA
HETATM   12  N6  UNL     1      18.307  68.175   4.190  1.00  0.00    -0.225 N 
HETATM   13  C16 UNL     1      20.146  69.267   3.759  1.00  0.00     0.258 A 
HETATM   14  N5  UNL     1      19.557  68.369   4.559  1.00  0.00    -0.160 NA
HETATM   15  C17 UNL     1      17.340  67.379   4.686  1.00  0.00     0.134 A 
ENDBRANCH   4   7
BRANCH   3  16
HETATM   16  C5  UNL     1      15.546  66.924   7.217  1.00  0.00     0.089 A 
HETATM   17  C6  UNL     1      14.884  68.009   7.801  1.00  0.00     0.037 A 
HETATM   18  C7  UNL     1      15.416  68.681   8.887  1.00  0.00     0.047 A 
HETATM   19  C8  UNL     1      16.632  68.255   9.391  1.00  0.00     0.140 A 
HETATM   20  F1  UNL     1      17.133  68.922  10.448  1.00  0.00    -0.204 F 
HETATM   21  C9  UNL     1      17.280  67.174   8.798  1.00  0.00     0.070 A 
HETATM   22  C10 UNL     1      18.584  66.745   9.363  1.00  0.00     0.074 C 
HETATM   23  N3  UNL     1      16.724  66.535   7.729  1.00  0.00    -0.248 NA
ENDBRANCH   3  16
BRANCH   1  24
HETATM   24  N1  UNL     1      12.516  64.013   4.631  1.00  0.00    -0.158 N 
HETATM   25  C2  UNL     1      11.130  64.299   4.802  1.00  0.00     0.232 C 
HETATM   26  C1  UNL     1      10.068  63.306   4.484  1.00  0.00     0.118 C 
HETATM   27  O1  UNL     1      10.759  65.419   5.232  1.00  0.00    -0.273 OA
HETATM   28  H4  UNL     1      12.795  63.068   4.269  1.00  0.00     0.187 HD
ENDBRANCH   1  24
TORSDOF 3
ENDMDL
MODEL 5
REMARK VINA RESULT:      -9.3      3.301      6.551
REMARK  3 active torsions:
REMARK  status: ('A' for Active; 'I' for Inactive)
REMARK       I    between atoms: C2_2  and  N1_4 
REMARK    1  A    between atoms: N1_4  and  C3_5 
REMARK    2  A    between atoms: C4_7  and  C5_8 
REMARK    3  A    between atoms: C11_16  and  C12_17 
ROOT
HETATM    1  C3  UNL     1      14.398  65.950   5.412  1.00  0.00     0.708 A 
HETATM    2  N2  UNL     1      15.115  66.538   4.427  1.00  0.00    -0.060 NA
HETATM    3  C4  UNL     1      16.174  67.210   4.967  1.00  0.00     0.132 A 
HETATM    4  C11 UNL     1      16.073  67.009   6.312  1.00  0.00     0.092 A 
HETATM    5  N7  UNL     1      14.995  66.245   6.567  1.00  0.00    -0.186 N 
HETATM    6  H14 UNL     1      14.679  65.937   7.502  1.00  0.00     0.184 HD
ENDROOT
BRANCH   4   7
HETATM    7  C12 UNL     1      16.982  67.533   7.321  1.00  0.00     0.011 A 
HETATM    8  C13 UNL     1      16.674  68.583   8.156  1.00  0.00     0.019 A 
HETATM    9  C14 UNL     1      17.619  68.992   9.072  1.00  0.00     0.053 A 
HETATM   10  C15 UNL     1      18.861  68.375   9.171  1.00  0.00     0.151 A 
HETATM   11  N4  UNL     1      19.947  68.558   9.950  1.00  0.00    -0.221 NA
HETATM   12  N6  UNL     1      19.126  67.346   8.331  1.00  0.00    -0.225 N 
HETATM   13  C16 UNL     1      20.878  67.650   9.597  1.00  0.00     0.258 A 
HETATM   14  N5  UNL     1      20.344  66.924   8.605  1.00  0.00    -0.160 NA
HETATM   15  C17 UNL     1      18.216  66.930   7.429  1.00  0.00     0.134 A 
ENDBRANCH   4   7
BRANCH   3  16
HETATM   16  C5  UNL     1      17.155  67.952   4.189  1.00  0.00     0.089 A 
HETATM   17  C6  UNL     1      16.744  68.451   2.949  1.00  0.00     0.037 A 
HETATM   18  C7  UNL     1      17.607  69.166   2.136  1.00  0.00     0.047 A 
HETATM   19  C8  UNL     1      18.900  69.381   2.578  1.00  0.00     0.140 A 
HETATM   20  F1  UNL     1      19.723  70.078   1.773  1.00  0.00    -0.204 F 
HETATM   21  C9  UNL     1      19.294  68.876   3.816  1.00  0.00     0.070 A 
HETATM   22  C10 UNL     1      20.690  69.123   4.258  1.00  0.00     0.074 C 
HETATM   23  N3  UNL     1      18.416  68.177   4.590  1.00  0.00    -0.248 NA
ENDBRANCH   3  16
BRANCH   1  24
HETATM   24  N1  UNL     1      13.226  65.162   5.246  1.00  0.00    -0.158 N 
HETATM   25  C2  UNL     1      13.108  64.192   4.208  1.00  0.00     0.232 C 
HETATM   26  C1  UNL     1      11.884  63.365   4.027  1.00  0.00     0.118 C 
HETATM   27  O1  UNL     1      14.053  64.003   3.402  1.00  0.00    -0.273 OA
HETATM   28  H4  UNL     1      12.419  65.296   5.904  1.00  0.00     0.187 HD
ENDBRANCH   1  24
TORSDOF 3
ENDMDL
MODEL 6
REMARK VINA RESULT:      -9.1      3.116      5.945
REMARK  3 active torsions:
REMARK  status: ('A' for Active; 'I' for Inactive)
REMARK       I    between atoms: C2_2  and  N1_4 
REMARK    1  A    between atoms: N1_4  and  C3_5 
REMARK    2  A    between atoms: C4_7  and  C5_8 
REMARK    3  A    between atoms: C11_16  and  C12_17 
ROOT
HETATM    1  C3  UNL     1      14.120  65.692   5.818  1.00  0.00     0.708 A 
HETATM    2  N2  UNL     1      14.476  66.057   7.072  1.00  0.00    -0.060 NA
HETATM    3  C4  UNL     1      15.655  66.745   7.033  1.00  0.00     0.132 A 
HETATM    4  C11 UNL     1      16.001  66.782   5.714  1.00  0.00     0.092 A 
HETATM    5  N7  UNL     1      15.064  66.142   4.991  1.00  0.00    -0.186 N 
HETATM    6  H14 UNL     1      15.070  66.018   3.965  1.00  0.00     0.184 HD
ENDROOT
BRANCH   4   7
HETATM    7  C12 UNL     1      17.193  67.412   5.164  1.00  0.00     0.011 A 
HETATM    8  C13 UNL     1      18.423  67.386   5.781  1.00  0.00     0.019 A 
HETATM    9  C14 UNL     1      19.480  68.021   5.163  1.00  0.00     0.053 A 
HETATM   10  C15 UNL     1      19.332  68.679   3.946  1.00  0.00     0.151 A 
HETATM   11  N4  UNL     1      20.164  69.364   3.137  1.00  0.00    -0.221 NA
HETATM   12  N6  UNL     1      18.104  68.682   3.373  1.00  0.00    -0.225 N 
HETATM   13  C16 UNL     1      19.460  69.789   2.069  1.00  0.00     0.258 A 
HETATM   14  N5  UNL     1      18.205  69.355   2.245  1.00  0.00    -0.160 NA
HETATM   15  C17 UNL     1      17.059  68.068   3.960  1.00  0.00     0.134 A 
ENDBRANCH   4   7
BRANCH   3  16
HETATM   16  C5  UNL     1      16.324  67.289   8.205  1.00  0.00     0.089 A 
HETATM   17  C6  UNL     1      15.515  67.730   9.257  1.00  0.00     0.037 A 
HETATM   18  C7  UNL     1      16.059  68.266  10.412  1.00  0.00     0.047 A 
HETATM   19  C8  UNL     1      17.436  68.360  10.507  1.00  0.00     0.140 A 
HETATM   20  F1  UNL     1      17.945  68.884  11.637  1.00  0.00    -0.204 F 
HETATM   21  C9  UNL     1      18.228  67.919   9.449  1.00  0.00     0.070 A 
HETATM   22  C10 UNL     1      19.702  68.037   9.584  1.00  0.00     0.074 C 
HETATM   23  N3  UNL     1      17.657  67.395   8.327  1.00  0.00    -0.248 NA
ENDBRANCH   3  16
BRANCH   1  24
HETATM   24  N1  UNL     1      12.955  64.965   5.452  1.00  0.00    -0.158 N 
HETATM   25  C2  UNL     1      12.855  64.272   4.209  1.00  0.00     0.232 C 
HETATM   26  C1  UNL     1      11.638  63.511   3.818  1.00  0.00     0.118 C 
HETATM   27  O1  UNL     1      13.812  64.285   3.395  1.00  0.00    -0.273 OA
HETATM   28  H4  UNL     1      12.139  64.935   6.111  1.00  0.00     0.187 HD
ENDBRANCH   1  24
TORSDOF 3
ENDMDL
MODEL 7
REMARK VINA RESULT:      -9.1      3.048      6.897
REMARK  3 active torsions:
REMARK  status: ('A' for Active; 'I' for Inactive)
REMARK       I    between atoms: C2_2  and  N1_4 
REMARK    1  A    between atoms: N1_4  and  C3_5 
REMARK    2  A    between atoms: C4_7  and  C5_8 
REMARK    3  A    between atoms: C11_16  and  C12_17 
ROOT
HETATM    1  C3  UNL     1      14.243  65.799   5.683  1.00  0.00     0.708 A 
HETATM    2  N2  UNL     1      14.997  66.477   4.787  1.00  0.00    -0.060 NA
HETATM    3  C4  UNL     1      16.078  67.025   5.417  1.00  0.00     0.132 A 
HETATM    4  C11 UNL     1      15.951  66.656   6.724  1.00  0.00     0.092 A 
HETATM    5  N7  UNL     1      14.838  65.915   6.871  1.00  0.00    -0.186 N 
HETATM    6  H14 UNL     1      14.497  65.503   7.755  1.00  0.00     0.184 HD
ENDROOT
BRANCH   4   7
HETATM    7  C12 UNL     1      16.870  67.004   7.798  1.00  0.00     0.011 A 
HETATM    8  C13 UNL     1      18.239  66.893   7.699  1.00  0.00     0.019 A 
HETATM    9  C14 UNL     1      19.006  67.252   8.786  1.00  0.00     0.053 A 
HETATM   10  C15 UNL     1      18.437  67.720   9.966  1.00  0.00     0.151 A 
HETATM   11  N4  UNL     1      18.927  68.132  11.152  1.00  0.00    -0.221 NA
HETATM   12  N6  UNL     1      17.086  67.814  10.023  1.00  0.00    -0.225 N 
HETATM   13  C16 UNL     1      17.890  68.480  11.939  1.00  0.00     0.258 A 
HETATM   14  N5  UNL     1      16.780  68.274  11.219  1.00  0.00    -0.160 NA
HETATM   15  C17 UNL     1      16.318  67.468   8.972  1.00  0.00     0.134 A 
ENDBRANCH   4   7
BRANCH   3  16
HETATM   16  C5  UNL     1      17.099  67.817   4.749  1.00  0.00     0.089 A 
HETATM   17  C6  UNL     1      17.068  67.855   3.351  1.00  0.00     0.037 A 
HETATM   18  C7  UNL     1      18.000  68.578   2.626  1.00  0.00     0.047 A 
HETATM   19  C8  UNL     1      18.976  69.271   3.319  1.00  0.00     0.140 A 
HETATM   20  F1  UNL     1      19.873  69.968   2.596  1.00  0.00    -0.204 F 
HETATM   21  C9  UNL     1      18.995  69.223   4.711  1.00  0.00     0.070 A 
HETATM   22  C10 UNL     1      20.058  69.977   5.422  1.00  0.00     0.074 C 
HETATM   23  N3  UNL     1      18.060  68.501   5.392  1.00  0.00    -0.248 NA
ENDBRANCH   3  16
BRANCH   1  24
HETATM   24  N1  UNL     1      13.040  65.092   5.409  1.00  0.00    -0.158 N 
HETATM   25  C2  UNL     1      12.896  64.264   4.257  1.00  0.00     0.232 C 
HETATM   26  C1  UNL     1      11.639  63.524   3.962  1.00  0.00     0.118 C 
HETATM   27  O1  UNL     1      13.844  64.133   3.443  1.00  0.00    -0.273 OA
HETATM   28  H4  UNL     1      12.230  65.180   6.070  1.00  0.00     0.187 HD
ENDBRANCH   1  24
TORSDOF 3
ENDMDL
MODEL 8
REMARK VINA RESULT:      -9.0      3.614      6.477
REMARK  3 active torsions:
REMARK  status: ('A' for Active; 'I' for Inactive)
REMARK       I    between atoms: C2_2  and  N1_4 
REMARK    1  A    between atoms: N1_4  and  C3_5 
REMARK    2  A    between atoms: C4_7  and  C5_8 
REMARK    3  A    between atoms: C11_16  and  C12_17 
ROOT
HETATM    1  C3  UNL     1      21.781  69.648   6.466  1.00  0.00     0.708 A 
HETATM    2  N2  UNL     1      21.154  69.576   5.268  1.00  0.00    -0.060 NA
HETATM    3  C4  UNL     1      19.845  69.234   5.455  1.00  0.00     0.132 A 
HETATM    4  C11 UNL     1      19.702  69.101   6.805  1.00  0.00     0.092 A 
HETATM    5  N7  UNL     1      20.880  69.354   7.404  1.00  0.00    -0.186 N 
HETATM    6  H14 UNL     1      21.061  69.326   8.421  1.00  0.00     0.184 HD
ENDROOT
BRANCH   4   7
HETATM    7  C12 UNL     1      18.473  68.742   7.499  1.00  0.00     0.011 A 
HETATM    8  C13 UNL     1      17.433  69.617   7.711  1.00  0.00     0.019 A 
HETATM    9  C14 UNL     1      16.319  69.161   8.383  1.00  0.00     0.053 A 
HETATM   10  C15 UNL     1      16.224  67.852   8.844  1.00  0.00     0.151 A 
HETATM   11  N4  UNL     1      15.284  67.153   9.512  1.00  0.00    -0.221 NA
HETATM   12  N6  UNL     1      17.271  67.023   8.616  1.00  0.00    -0.225 N 
HETATM   13  C16 UNL     1      15.743  65.899   9.696  1.00  0.00     0.258 A 
HETATM   14  N5  UNL     1      16.959  65.853   9.137  1.00  0.00    -0.160 NA
HETATM   15  C17 UNL     1      18.368  67.449   7.962  1.00  0.00     0.134 A 
ENDBRANCH   4   7
BRANCH   3  16
HETATM   16  C5  UNL     1      18.880  69.074   4.378  1.00  0.00     0.089 A 
HETATM   17  C6  UNL     1      19.223  69.597   3.127  1.00  0.00     0.037 A 
HETATM   18  C7  UNL     1      18.369  69.497   2.042  1.00  0.00     0.047 A 
HETATM   19  C8  UNL     1      17.153  68.863   2.221  1.00  0.00     0.140 A 
HETATM   20  F1  UNL     1      16.337  68.776   1.154  1.00  0.00    -0.204 F 
HETATM   21  C9  UNL     1      16.824  68.348   3.473  1.00  0.00     0.070 A 
HETATM   22  C10 UNL     1      15.510  67.676   3.630  1.00  0.00     0.074 C 
HETATM   23  N3  UNL     1      17.692  68.465   4.519  1.00  0.00    -0.248 NA
ENDBRANCH   3  16
BRANCH   1  24
HETATM   24  N1  UNL     1      23.147  69.977   6.683  1.00  0.00    -0.158 N 
HETATM   25  C2  UNL     1      23.923  69.351   7.703  1.00  0.00     0.232 C 
HETATM   26  C1  UNL     1      25.352  69.692   7.937  1.00  0.00     0.118 C 
HETATM   27  O1  UNL     1      23.412  68.476   8.445  1.00  0.00    -0.273 OA
HETATM   28  H4  UNL     1      23.603  70.704   6.078  1.00  0.00     0.187 HD
ENDBRANCH   1  24
TORSDOF 3
ENDMDL
MODEL 9
REMARK VINA RESULT:      -9.0      2.772      5.635
REMARK  3 active torsions:
REMARK  status: ('A' for Active; 'I' for Inactive)
REMARK       I    between atoms: C2_2  and  N1_4 
REMARK    1  A    between atoms: N1_4  and  C3_5 
REMARK    2  A    between atoms: C4_7  and  C5_8 
REMARK    3  A    between atoms: C11_16  and  C12_17 
ROOT
HETATM    1  C3  UNL     1      17.731  68.617   9.075  1.00  0.00     0.708 A 
HETATM    2  N2  UNL     1      18.646  68.995   8.152  1.00  0.00    -0.060 NA
HETATM    3  C4  UNL     1      18.236  68.599   6.911  1.00  0.00     0.132 A 
HETATM    4  C11 UNL     1      17.044  67.968   7.115  1.00  0.00     0.092 A 
HETATM    5  N7  UNL     1      16.751  67.986   8.428  1.00  0.00    -0.186 N 
HETATM    6  H14 UNL     1      15.908  67.579   8.866  1.00  0.00     0.184 HD
ENDROOT
BRANCH   4   7
HETATM    7  C12 UNL     1      16.213  67.366   6.082  1.00  0.00     0.011 A 
HETATM    8  C13 UNL     1      15.693  68.066   5.016  1.00  0.00     0.019 A 
HETATM    9  C14 UNL     1      14.917  67.386   4.102  1.00  0.00     0.053 A 
HETATM   10  C15 UNL     1      14.652  66.027   4.230  1.00  0.00     0.151 A 
HETATM   11  N4  UNL     1      13.948  65.131   3.509  1.00  0.00    -0.221 NA
HETATM   12  N6  UNL     1      15.181  65.376   5.293  1.00  0.00    -0.225 N 
HETATM   13  C16 UNL     1      14.040  63.933   4.119  1.00  0.00     0.258 A 
HETATM   14  N5  UNL     1      14.800  64.117   5.206  1.00  0.00    -0.160 NA
HETATM   15  C17 UNL     1      15.942  66.021   6.199  1.00  0.00     0.134 A 
ENDBRANCH   4   7
BRANCH   3  16
HETATM   16  C5  UNL     1      18.980  68.849   5.685  1.00  0.00     0.089 A 
HETATM   17  C6  UNL     1      20.362  69.032   5.801  1.00  0.00     0.037 A 
HETATM   18  C7  UNL     1      21.154  69.278   4.693  1.00  0.00     0.047 A 
HETATM   19  C8  UNL     1      20.546  69.342   3.452  1.00  0.00     0.140 A 
HETATM   20  F1  UNL     1      21.333  69.582   2.387  1.00  0.00    -0.204 F 
HETATM   21  C9  UNL     1      19.168  69.159   3.353  1.00  0.00     0.070 A 
HETATM   22  C10 UNL     1      18.548  69.237   2.007  1.00  0.00     0.074 C 
HETATM   23  N3  UNL     1      18.419  68.917   4.467  1.00  0.00    -0.248 NA
ENDBRANCH   3  16
BRANCH   1  24
HETATM   24  N1  UNL     1      17.803  68.850  10.476  1.00  0.00    -0.158 N 
HETATM   25  C2  UNL     1      17.175  67.985  11.420  1.00  0.00     0.232 C 
HETATM   26  C1  UNL     1      17.244  68.223  12.886  1.00  0.00     0.118 C 
HETATM   27  O1  UNL     1      16.534  66.976  11.031  1.00  0.00    -0.273 OA
HETATM   28  H4  UNL     1      18.331  69.684  10.832  1.00  0.00     0.187 HD
ENDBRANCH   1  24
TORSDOF 3
ENDMDL
MODEL 10
REMARK VINA RESULT:      -8.9      3.666      5.427
REMARK  3 active torsions:
REMARK  status: ('A' for Active; 'I' for Inactive)
REMARK       I    between atoms: C2_2  and  N1_4 
REMARK    1  A    between atoms: N1_4  and  C3_5 
REMARK    2  A    between atoms: C4_7  and  C5_8 
REMARK    3  A    between atoms: C11_16  and  C12_17 
ROOT
HETATM    1  C3  UNL     1      17.207  67.024  12.146  1.00  0.00     0.708 A 
HETATM    2  N2  UNL     1      16.389  67.001  11.068  1.00  0.00    -0.060 NA
HETATM    3  C4  UNL     1      17.090  67.356   9.951  1.00  0.00     0.132 A 
HETATM    4  C11 UNL     1      18.359  67.597  10.390  1.00  0.00     0.092 A 
HETATM    5  N7  UNL     1      18.416  67.392  11.719  1.00  0.00    -0.186 N 
HETATM    6  H14 UNL     1      19.254  67.501  12.313  1.00  0.00     0.184 HD
ENDROOT
BRANCH   4   7
HETATM    7  C12 UNL     1      19.481  68.011   9.560  1.00  0.00     0.011 A 
HETATM    8  C13 UNL     1      19.895  67.328   8.439  1.00  0.00     0.019 A 
HETATM    9  C14 UNL     1      20.974  67.817   7.734  1.00  0.00     0.053 A 
HETATM   10  C15 UNL     1      21.644  68.971   8.125  1.00  0.00     0.151 A 
HETATM   11  N4  UNL     1      22.698  69.659   7.641  1.00  0.00    -0.221 NA
HETATM   12  N6  UNL     1      21.207  69.613   9.234  1.00  0.00    -0.225 N 
HETATM   13  C16 UNL     1      22.913  70.721   8.444  1.00  0.00     0.258 A 
HETATM   14  N5  UNL     1      21.984  70.663   9.407  1.00  0.00    -0.160 NA
HETATM   15  C17 UNL     1      20.155  69.151   9.938  1.00  0.00     0.134 A 
ENDBRANCH   4   7
BRANCH   3  16
HETATM   16  C5  UNL     1      16.518  67.430   8.615  1.00  0.00     0.089 A 
HETATM   17  C6  UNL     1      16.402  68.698   8.037  1.00  0.00     0.037 A 
HETATM   18  C7  UNL     1      15.867  68.870   6.772  1.00  0.00     0.047 A 
HETATM   19  C8  UNL     1      15.442  67.749   6.081  1.00  0.00     0.140 A 
HETATM   20  F1  UNL     1      14.925  67.938   4.852  1.00  0.00    -0.204 F 
HETATM   21  C9  UNL     1      15.563  66.493   6.671  1.00  0.00     0.070 A 
HETATM   22  C10 UNL     1      15.095  65.312   5.902  1.00  0.00     0.074 C 
HETATM   23  N3  UNL     1      16.096  66.362   7.919  1.00  0.00    -0.248 NA
ENDBRANCH   3  16
BRANCH   1  24
HETATM   24  N1  UNL     1      16.845  66.713  13.485  1.00  0.00    -0.158 N 
HETATM   25  C2  UNL     1      17.737  66.923  14.578  1.00  0.00     0.232 C 
HETATM   26  C1  UNL     1      17.366  66.598  15.981  1.00  0.00     0.118 C 
HETATM   27  O1  UNL     1      18.883  67.400  14.382  1.00  0.00    -0.273 OA
HETATM   28  H4  UNL     1      15.895  66.313  13.681  1.00  0.00     0.187 HD
ENDBRANCH   1  24
TORSDOF 3
ENDMDL
